
    -----------------------------------------------------------------------
          Psi4: An Open-Source Ab Initio Electronic Structure Package
                               Psi4 1.3.1 release

                         Git: Rev {HEAD} 2ce1c29 


    R. M. Parrish, L. A. Burns, D. G. A. Smith, A. C. Simmonett,
    A. E. DePrince III, E. G. Hohenstein, U. Bozkaya, A. Yu. Sokolov,
    R. Di Remigio, R. M. Richard, J. F. Gonthier, A. M. James,
    H. R. McAlexander, A. Kumar, M. Saitow, X. Wang, B. P. Pritchard,
    P. Verma, H. F. Schaefer III, K. Patkowski, R. A. King, E. F. Valeev,
    F. A. Evangelista, J. M. Turney, T. D. Crawford, and C. D. Sherrill,
    J. Chem. Theory Comput. 13(7) pp 3185--3197 (2017).
    (doi: 10.1021/acs.jctc.7b00174)


                         Additional Contributions by
    P. Kraus, H. Kruse, M. H. Lechner, M. C. Schieber, R. A. Shaw,
    A. Alenaizan, R. Galvelis, Z. L. Glick, S. Lehtola, and J. P. Misiewicz

    -----------------------------------------------------------------------


    Psi4 started on: Monday, 15 April 2019 12:53PM

    Process ID: 19525
    Host:       adabbott
    PSIDATADIR: /home/adabbott/anaconda3/envs/trial4/share/psi4
    Memory:     500.0 MiB
    Threads:    1
    
  ==> Input File <==

--------------------------------------------------------------------------
# density fitted hartree fock 
molecule h2o {
0 1
H 0.0000000000 0.0000000000 1.0250000000
H 0.0000000000 0.7361215932 -0.4250000000
O 0.0000000000 0.0000000000 0.0000000000
}

set basis 6-31g
energy('hf')

--------------------------------------------------------------------------

*** tstart() called on adabbott
*** at Mon Apr 15 12:53:28 2019

   => Loading Basis Set <=

    Name: 6-31G
    Role: ORBITAL
    Keyword: BASIS
    atoms 1-2 entry H          line    26 file /home/adabbott/anaconda3/envs/trial4/share/psi4/basis/6-31g.gbs 
    atoms 3   entry O          line   117 file /home/adabbott/anaconda3/envs/trial4/share/psi4/basis/6-31g.gbs 


         ---------------------------------------------------------
                                   SCF
               by Justin Turney, Rob Parrish, Andy Simmonett
                          and Daniel G. A. Smith
                              RHF Reference
                        1 Threads,    500 MiB Core
         ---------------------------------------------------------

  ==> Geometry <==

    Molecular point group: cs
    Full point group: Cs

    Geometry (in Angstrom), charge = 0, multiplicity = 1:

       Center              X                  Y                   Z               Mass       
    ------------   -----------------  -----------------  -----------------  -----------------
         H            0.041191477414    -0.991425538014     0.000000000000     1.007825032230
         H           -0.694930115786     0.458574461986     0.000000000000     1.007825032230
         O            0.041191477414     0.033574461986     0.000000000000    15.994914619570

  Running in cs symmetry.

  Rotational constants: A =     44.57756  B =     12.41381  C =      9.70984 [cm^-1]
  Rotational constants: A = 1336401.65437  B = 372156.55216  C = 291093.75969 [MHz]
  Nuclear repulsion =    9.436071521343553

  Charge       = 0
  Multiplicity = 1
  Electrons    = 10
  Nalpha       = 5
  Nbeta        = 5

  ==> Algorithm <==

  SCF Algorithm Type is DF.
  DIIS enabled.
  MOM disabled.
  Fractional occupation disabled.
  Guess Type is SAD.
  Energy threshold   = 1.00e-06
  Density threshold  = 1.00e-06
  Integral threshold = 0.00e+00

  ==> Primary Basis <==

  Basis Set: 6-31G
    Blend: 6-31G
    Number of shells: 9
    Number of basis function: 13
    Number of Cartesian functions: 13
    Spherical Harmonics?: false
    Max angular momentum: 1

   => Loading Basis Set <=

    Name: (6-31G AUX)
    Role: JKFIT
    Keyword: DF_BASIS_SCF
    atoms 1-2 entry H          line    51 file /home/adabbott/anaconda3/envs/trial4/share/psi4/basis/cc-pvdz-jkfit.gbs 
    atoms 3   entry O          line   221 file /home/adabbott/anaconda3/envs/trial4/share/psi4/basis/cc-pvdz-jkfit.gbs 

  ==> Pre-Iterations <==

   -------------------------------------------------------
    Irrep   Nso     Nmo     Nalpha   Nbeta   Ndocc  Nsocc
   -------------------------------------------------------
     A'        11      11       0       0       0       0
     A"         2       2       0       0       0       0
   -------------------------------------------------------
    Total      13      13       5       5       5       0
   -------------------------------------------------------

  ==> Integral Setup <==

  DFHelper Memory: AOs need 0.000 GiB; user supplied 0.366 GiB. Using in-core AOs.

  ==> MemDFJK: Density-Fitted J/K Matrices <==

    J tasked:                   Yes
    K tasked:                   Yes
    wK tasked:                   No
    OpenMP threads:               1
    Memory [MiB]:               375
    Algorithm:                 Core
    Schwarz Cutoff:           1E-12
    Mask sparsity (%):       0.0000
    Fitting Condition:        1E-10

   => Auxiliary Basis Set <=

  Basis Set: (6-31G AUX)
    Blend: CC-PVDZ-JKFIT
    Number of shells: 42
    Number of basis function: 131
    Number of Cartesian functions: 131
    Spherical Harmonics?: false
    Max angular momentum: 3

  Minimum eigenvalue in the overlap matrix is 6.4182740093E-02.
  Using Symmetric Orthogonalization.

  SCF Guess: Superposition of Atomic Densities via on-the-fly atomic UHF.

  ==> Iterations <==

                           Total Energy        Delta E     RMS |[F,P]|

   @DF-RHF iter SAD:   -75.52897110712539   -7.55290e+01   0.00000e+00 
   @DF-RHF iter   1:   -75.89383716773932   -3.64866e-01   3.65538e-02 DIIS
   @DF-RHF iter   2:   -75.94625502088701   -5.24179e-02   2.05984e-02 DIIS
   @DF-RHF iter   3:   -75.96452727590136   -1.82723e-02   1.72661e-03 DIIS
   @DF-RHF iter   4:   -75.96487548585200   -3.48210e-04   3.43727e-04 DIIS
   @DF-RHF iter   5:   -75.96489375925934   -1.82734e-05   6.24798e-05 DIIS
   @DF-RHF iter   6:   -75.96489457624460   -8.16985e-07   1.39140e-05 DIIS
   @DF-RHF iter   7:   -75.96489461429366   -3.80491e-08   2.11291e-06 DIIS
   @DF-RHF iter   8:   -75.96489461499903   -7.05370e-10   3.13446e-07 DIIS
  Energy and wave function converged.


  ==> Post-Iterations <==

    Orbital Energies [Eh]
    ---------------------

    Doubly Occupied:                                                      

       1Ap   -20.543583     2Ap    -1.358352     3Ap    -0.746437  
       4Ap    -0.533258     1App   -0.495302  

    Virtual:                                                              

       5Ap     0.203993     6Ap     0.307982     7Ap     1.064006  
       2App    1.170429     8Ap     1.177003     9Ap     1.260301  
      10Ap     1.427938    11Ap     1.668407  

    Final Occupation by Irrep:
             Ap   App 
    DOCC [     4,    1 ]

  @DF-RHF Final Energy:   -75.96489461499903

   => Energetics <=

    Nuclear Repulsion Energy =              9.4360715213435533
    One-Electron Energy =                -123.4480628212044167
    Two-Electron Energy =                  38.0470966848618346
    Total Energy =                        -75.9648946149990252

Computation Completed


Properties will be evaluated at   0.000000,   0.000000,   0.000000 [a0]

Properties computed using the SCF density matrix

  Nuclear Dipole Moment: [e a0]
     X:    -0.6127      Y:    -0.4994      Z:     0.0000

  Electronic Dipole Moment: [e a0]
     X:    -0.1441      Y:    -0.0183      Z:     0.0000

  Dipole Moment: [e a0]
     X:    -0.7567      Y:    -0.5177      Z:     0.0000     Total:     0.9169

  Dipole Moment: [D]
     X:    -1.9234      Y:    -1.3158      Z:     0.0000     Total:     2.3304


*** tstop() called on adabbott at Mon Apr 15 12:53:28 2019
Module time:
	user time   =       0.33 seconds =       0.01 minutes
	system time =       0.00 seconds =       0.00 minutes
	total time  =          0 seconds =       0.00 minutes
Total time:
	user time   =       0.33 seconds =       0.01 minutes
	system time =       0.00 seconds =       0.00 minutes
	total time  =          0 seconds =       0.00 minutes

    Psi4 stopped on: Monday, 15 April 2019 12:53PM
    Psi4 wall time for execution: 0:00:00.35

*** Psi4 exiting successfully. Buy a developer a beer!
