
 Primary working directories    : /tmp/206709.1.gen4.q
 Secondary working directories  : /tmp/206709.1.gen4.q
 Wavefunction directory         : /home/vulcan/adabbott/wfu/
 Main file repository           : /tmp/206709.1.gen4.q/

 ARCHNAME  : Linux/x86_64
 FC        : /opt/intel/compilers_and_libraries_2016.1.150/linux/bin/intel64/ifort
 FCVERSION : 16.0.1
 BLASLIB   : -mkl
 id        : ccgc

 Nodes     nprocs
 n038         3
 Number of processes for MPI-2 version of Molpro:   nprocs(total)=    4   nprocs(compute)=    3   nprocs(helper)=    1
 ga_uses_ma=false, calling ma_init with nominal heap.
 GA-space will be limited to   8.0 MW (determined by -G option)

 Using customized tuning parameters: mindgm=10; mindgv=16; mindgc=4; mindgr=1; noblas=0; mincuda=1000; minvec=7
 default implementation of scratch files=sf  

 memory,1000,m
 gthresh,energy=1.0d-10,orbital=1.0d-10,oneint=1.0d-16,twoint=1.0d-16,optgrad=1.0d-7,compress=1.0d-16
 angstrom
 set, charge=0, spin=0
 
 geometry={
  O          0.0000000000       -0.0000344556       -0.0681792578
  H          0.0000000000       -0.7497957458        0.5413392778
  H          0.0000000000        0.7503426713        0.5408949991
 }
 
 
 rhf
 {ccsd(t);maxit,200}
 {optg}

 Variables initialized (661), CPU time= 0.00 sec
 Commands  initialized (458), CPU time= 0.01 sec, 486 directives.
 Default parameters read. Elapsed time= 0.09 sec

 Checking input...
 Passed
1


                                         ***  PROGRAM SYSTEM MOLPRO  ***
                         Copyright, University College Cardiff Consultants Limited, 2008

                                    Version 2010.1 linked May 16 2016 07:17:05


 **********************************************************************************************************************************
 LABEL *                                                                                 
 Linux-4.4.3/n038(x86_64) 64 bit mpp version                                             DATE: 31-Mar-18          TIME: 15:10:01  
 **********************************************************************************************************************************

 SHA1:             9e8077add272b0f3cad6f7df79ec5211205f459d
 **********************************************************************************************************************************

 THRESHOLDS:

 ZERO    =  1.00D-12  ONEINT  =  1.00D-16  TWOINT  =  1.00D-16  PREFAC  =  1.00D-14  LOCALI  =  1.00D-09  EORDER  =  1.00D-04
 ENERGY  =  1.00D-10  ETEST   =  0.00D+00  EDENS   =  0.00D+00  THRDEDEF=  1.00D-06  GRADIENT=  1.00D-02  STEP    =  1.00D-03
 ORBITAL =  1.00D-10  CIVEC   =  1.00D-05  COEFF   =  1.00D-04  PRINTCI =  5.00D-02  PUNCHCI =  9.90D+01  OPTGRAD =  1.00D-07
 OPTENERG=  1.00D-06  OPTSTEP =  3.00D-04  THRGRAD =  1.00D-10  COMPRESS=  1.00D-16  VARMIN  =  1.00D-07  VARMAX  =  1.00D-03
 THRDOUB =  0.00D+00  THRDIV  =  1.00D-05  THRRED  =  1.00D-07  THRPSP  =  1.00D+00  THRDC   =  1.00D-10  THRCS   =  1.00D-10
 THRNRM  =  1.00D-08  THREQ   =  0.00D+00  THRDE   =  1.00D+00  THRREF  =  1.00D-05  SPARFAC =  1.00D+00  THRDLP  =  1.00D-07
 THRDIA  =  1.00D-10  THRDLS  =  1.00D-07  THRGPS  =  0.00D+00  THRKEX  =  0.00D+00  THRDIS  =  2.00D-01  THRVAR  =  1.00D-10
 THRLOC  =  1.00D-06  THRGAP  =  1.00D-06  THRLOCT = -1.00D+00  THRGAPT = -1.00D+00  THRORB  =  1.00D-06  THRMLTP =  0.00D+00
 THRCPQCI=  1.00D-10  KEXTA   =  0.00D+00  THRCOARS=  0.00D+00  SYMTOL  =  1.00D-06  GRADTOL =  1.00D-06  THROVL  =  1.00D-08
 THRORTH =  1.00D-08  GRID    =  1.00D-06  GRIDMAX =  1.00D-03  DTMAX   =  0.00D+00

 SETTING CHARGE         =         0.00000000                                  
 SETTING SPIN           =         0.00000000                                  
 ZUNIT=ANG
 

Geometry recognized as XYZ


 Variable memory set to 1000000000 words,  buffer space   230000 words



 Recomputing integrals since basis changed


 Using spherical harmonics

 Library entry O      S cc-pVDZ              selected for orbital group  1
 Library entry O      P cc-pVDZ              selected for orbital group  1
 Library entry O      D cc-pVDZ              selected for orbital group  1
 Library entry H      S cc-pVDZ              selected for orbital group  2
 Library entry H      P cc-pVDZ              selected for orbital group  2

1PROGRAM * SEWARD (Integral evaluation for generally contracted gaussian basis sets)     Author: Roland Lindh, 1990

 Geometry written to block  1 of record 700


 Point group  Cs  



 ATOMIC COORDINATES

 NR  ATOM    CHARGE       X              Y              Z

   1  O       8.00    0.000000000   -0.000065112   -0.128840125
   2  H       1.00    0.000000000   -1.416908614    1.022982979
   3  H       1.00    0.000000000    1.417942153    1.022143414

 Bond lengths in Bohr (Angstrom)

 1-2  1.825963300  1-3  1.826337239
     ( 0.966258163)     ( 0.966456043)

 Bond angles

  2-1-3  101.82468702

 NUCLEAR CHARGE:                   10
 NUMBER OF PRIMITIVE AOS:          41
 NUMBER OF SYMMETRY AOS:           40
 NUMBER OF CONTRACTIONS:           24   (  18A'  +   6A"  )
 NUMBER OF CORE ORBITALS:           1   (   1A'  +   0A"  )
 NUMBER OF VALENCE ORBITALS:        6   (   5A'  +   1A"  )


 NUCLEAR REPULSION ENERGY    9.11435331


 Eigenvalues of metric

         1 0.176E-01 0.462E-01 0.518E-01 0.988E-01 0.160E+00 0.172E+00 0.224E+00 0.527E+00
         2 0.183E+00 0.528E+00 0.629E+00 0.111E+01 0.132E+01 0.224E+01


 Contracted 2-electron integrals neglected if value below      1.0D-16
 AO integral compression algorithm  1   Integral accuracy      1.0D-16

     0.786 MB (compressed) written to integral file (100.0%)

     Node minimum: 0.262 MB, node maximum: 0.262 MB


 NUMBER OF SORTED TWO-ELECTRON INTEGRALS:       8634.     BUFFER LENGTH:  32768
 NUMBER OF SEGMENTS:   1  SEGMENT LENGTH:       8634      RECORD LENGTH: 524288

 Memory used in sort:       0.57 MW

 SORT1 READ       31790. AND WROTE        7845. INTEGRALS IN      1 RECORDS. CPU TIME:     0.01 SEC, REAL TIME:     0.02 SEC
 SORT2 READ       23239. AND WROTE       25710. INTEGRALS IN      3 RECORDS. CPU TIME:     0.00 SEC, REAL TIME:     0.00 SEC

 Node minimum:        8506.  Node maximum:        8634. integrals

 OPERATOR DM      FOR CENTER  0  COORDINATES:    0.000000    0.000000    0.000000


 **********************************************************************************************************************************
 DATASETS  * FILE   NREC   LENGTH (MB)   RECORD NAMES
              1      18        2.59       500      610      700      900      950      970     1000      129      960     1100   
                                          VAR    BASINP    GEOM    SYMINP    ZMAT    AOBASIS   BASIS     P2S    ABASIS      S 
                                         1400     1410     1200     1210     1080     1600     1650     1700   
                                           T        V       H0       H01     AOSYM     SMH    MOLCAS    OPER   

 PROGRAMS   *        TOTAL       INT
 CPU TIMES  *         0.58      0.48
 REAL TIME  *         0.95 SEC
 DISK USED  *        12.80 MB      
 GA USED    *         0.00 MB       (max)       0.00 MB       (current)
 **********************************************************************************************************************************

1PROGRAM * RHF-SCF (CLOSED SHELL)       Authors: W. Meyer, H.-J. Werner


 NUMBER OF ELECTRONS:       5+    5-
 CONVERGENCE THRESHOLDS:    1.00E-10 (Density)    1.00E-11 (Energy)
 MAX. NUMBER OF ITERATIONS:       60
 INTERPOLATION TYPE:            DIIS
 INTERPOLATION STEPS:              2 (START)      1 (STEP)
 LEVEL SHIFTS:                  0.00 (CLOSED)  0.00 (OPEN) 



 Orbital guess generated from atomic densities. Full valence occupancy:    6   1

 Molecular orbital dump at record        2100.2

 Initial alpha occupancy:   4   1
 Initial beta  occupancy:   4   1
 Wave function symmetry:    1

 ITERATION    DDIFF          GRAD             ENERGY        2-EL.EN.            DIPOLE MOMENTS         DIIS
    1      0.000D+00      0.000D+00       -75.98625113     77.791929    0.00000    0.00066    1.18411    0
    2      0.000D+00      0.314D-01       -76.01680743     74.439350    0.00000    0.00035    0.76456    1
    3      0.585D-01      0.168D-01       -76.02585569     75.800575    0.00000    0.00040    0.84584    2
    4      0.195D-01      0.184D-02       -76.02607792     75.704836    0.00000    0.00037    0.83294    3
    5      0.350D-02      0.506D-03       -76.02609690     75.717195    0.00000    0.00037    0.82908    4
    6      0.113D-02      0.795D-04       -76.02609751     75.717108    0.00000    0.00036    0.82844    5
    7      0.181D-03      0.114D-04       -76.02609752     75.717047    0.00000    0.00036    0.82834    6
    8      0.317D-04      0.942D-06       -76.02609752     75.717033    0.00000    0.00036    0.82834    5
    9      0.202D-05      0.143D-06       -76.02609752     75.717039    0.00000    0.00036    0.82834    5
   10      0.303D-06      0.533D-07       -76.02609752     75.717036    0.00000    0.00036    0.82834    5
   11      0.102D-06      0.197D-07       -76.02609752     75.717037    0.00000    0.00036    0.82834    6
   12      0.449D-07      0.313D-08       -76.02609752     75.717037    0.00000    0.00036    0.82834    6
   13      0.823D-08      0.449D-09       -76.02609752     75.717037    0.00000    0.00036    0.82834    6
   14      0.981D-09      0.629D-10       -76.02609752     75.717037    0.00000    0.00036    0.82834    6
   15      0.145D-09      0.896D-11       -76.02609752     75.717037    0.00000    0.00036    0.82834    6
   16      0.200D-10      0.125D-11       -76.02609752     75.717037    0.00000    0.00036    0.82834    0

 Final occupancy:   4   1

 !RHF STATE 1.1 Energy                -76.026097518342
 Nuclear energy                         9.11435331
 One-electron energy                 -122.99896945
 Two-electron energy                   37.85851862
 Virial quotient                       -1.00089446
 !RHF STATE 1.1 Dipole moment           0.00000000     0.00036442     0.82834064
 Dipole moment /Debye                   0.00000000     0.00092619     2.10529400

 Orbital energies:

         1.1          2.1          3.1          4.1          5.1          6.1
    -20.553499    -1.334250    -0.689330    -0.570399     0.183467     0.255180

         1.2          2.2          3.2
     -0.493488     1.199516     1.482933


 **********************************************************************************************************************************
 DATASETS  * FILE   NREC   LENGTH (MB)   RECORD NAMES
              1      18        2.59       500      610      700      900      950      970     1000      129      960     1100   
                                          VAR    BASINP    GEOM    SYMINP    ZMAT    AOBASIS   BASIS     P2S    ABASIS      S 
                                         1400     1410     1200     1210     1080     1600     1650     1700   
                                           T        V       H0       H01     AOSYM     SMH    MOLCAS    OPER   

              2       3        0.30       700     1000     2100   
                                         GEOM     BASIS     RHF  

 PROGRAMS   *        TOTAL       RHF       INT
 CPU TIMES  *         0.60      0.02      0.48
 REAL TIME  *         0.99 SEC
 DISK USED  *        22.34 MB      
 SF USED    *         0.00 MB      
 GA USED    *         0.00 MB       (max)       0.00 MB       (current)
 **********************************************************************************************************************************


 Reading current basis input from record  610.1

1PROGRAM * CCSD (Closed-shell coupled cluster)     Authors: C. Hampel, H.-J. Werner, 1991, M. Deegan, P.J. Knowles, 1992


 Convergence thresholds:  THRVAR = 1.00D-14  THRDEN = 1.00D-10

 CCSD(T)     terms to be evaluated (factor= 1.000)


 Number of core orbitals:           1 (   1   0 )
 Number of closed-shell orbitals:   4 (   3   1 )
 Number of external orbitals:      19 (  14   5 )

 Molecular orbitals read from record     2100.2  Type=RHF/CANONICAL (state 1.1)

 Number of N-1 electron functions:               4
 Number of N-2 electron functions:              10
 Number of singly external CSFs:                47
 Number of doubly external CSFs:              1563
 Total number of CSFs:                        1611

 Length of J-op  integral file:               0.00 MB
 Length of K-op  integral file:               0.03 MB
 Length of 3-ext integral record:             0.00 MB

 Memory could be reduced to 0.31 Mwords without degradation in triples

 Integral transformation finished. Total CPU:   0.00 sec, npass=  1  Memory used:   0.09 MW

 Reference energy:                    -76.02609752

 MP2 singlet pair energy:              -0.12621289
 MP2 triplet pair energy:              -0.07635201
 MP2 correlation energy:               -0.20256490
 MP2 total energy:                    -76.22866242

 SCS-MP2 correlation energy:           -0.19896338   (PS=  1.200000  PT=  0.333333)
 SCS-MP2 total energy:                -76.22506090

 ITER.      SQ.NORM     CORR.ENERGY   TOTAL ENERGY   ENERGY CHANGE        DEN1      VAR(S)    VAR(P)  DIIS     TIME
   1      1.05340395    -0.21107547   -76.23717299    -0.00851058    -0.00486893  0.29D-03  0.69D-03  1  1     0.01
   2      1.05664501    -0.21202396   -76.23812148    -0.00094849    -0.00393937  0.54D-05  0.60D-04  2  2     0.01
   3      1.05746253    -0.21210080   -76.23819831    -0.00007683    -0.00061220  0.21D-05  0.24D-05  3  3     0.01
   4      1.05764909    -0.21210385   -76.23820136    -0.00000305    -0.00010084  0.13D-06  0.14D-06  4  4     0.01
   5      1.05768396    -0.21210234   -76.23819986     0.00000150    -0.00001601  0.34D-07  0.78D-08  5  5     0.01
   6      1.05768878    -0.21210227   -76.23819979     0.00000007     0.00000037  0.43D-08  0.84D-09  6  6     0.01
   7      1.05769151    -0.21210222   -76.23819974     0.00000006    -0.00000027  0.16D-09  0.70D-10  6  1     0.01
   8      1.05769188    -0.21210217   -76.23819969     0.00000005     0.00000007  0.43D-11  0.50D-11  6  2     0.01
   9      1.05769199    -0.21210216   -76.23819968     0.00000001    -0.00000006  0.10D-12  0.31D-12  6  3     0.01
  10      1.05769202    -0.21210216   -76.23819967     0.00000000    -0.00000002  0.22D-14  0.89D-14  6  4     0.01
  11      1.05769203    -0.21210216   -76.23819967     0.00000000    -0.00000000  0.18D-15  0.34D-15  6  6     0.01
  12      1.05769203    -0.21210216   -76.23819967     0.00000000    -0.00000000  0.28D-17  0.13D-16  6  5     0.02

 Norm of t1 vector:      0.02425403      S-energy:     0.00000000      T1 diagnostic:  0.00606351
                                                                       D1 diagnostic:  0.01141268

 Doubles amplitudes (print threshold =  0.500E-01):

         I         J         SYM. A    SYM. B    A         B      T(IJ, AB)

         4         4         2         2         1         1     -0.05142849


 Total CPU time for triples:      0.00 sec


 RESULTS
 =======

  Reference energy                    -76.026097518342
  CCSD singlet pair energy             -0.144054959744
  CCSD triplet pair energy             -0.068047195650
  CCSD correlation energy              -0.212102155388

  Triples (T) contribution             -0.003105134783
  Total correlation energy             -0.215207290172

  CCSD total energy                   -76.238199673730
  CCSD[T] energy                      -76.241393584894
  CCSD-T energy                       -76.241247862476
 !CCSD(T) total energy                -76.241304808514

 Timing summary (sec):

 STEP                 CPU(USER)    SYS     CPU(TOT)    WALL
 CCSD iterations         0.02      0.00      0.02      0.10

 Program statistics:

 Available memory in ccsd:               999999836
 Min. memory needed in ccsd:                 10413
 Max. memory used in ccsd:                   11148
 Max. memory used in cckext:                 44198 (12 integral passes)



 **********************************************************************************************************************************
 DATASETS  * FILE   NREC   LENGTH (MB)   RECORD NAMES
              1      19        2.70       500      610      700      900      950      970     1000      129      960     1100   
                                          VAR    BASINP    GEOM    SYMINP    ZMAT    AOBASIS   BASIS     P2S    ABASIS      S 
                                         1400     1410     1200     1210     1080     1600     1650     1700     1380   
                                           T        V       H0       H01     AOSYM     SMH    MOLCAS    OPER     JKOP   

              2       3        0.30       700     1000     2100   
                                         GEOM     BASIS     RHF  

 PROGRAMS   *        TOTAL   CCSD(T)       RHF       INT
 CPU TIMES  *         0.63      0.03      0.02      0.48
 REAL TIME  *         1.11 SEC
 DISK USED  *        22.62 MB      
 SF USED    *         0.31 MB      
 GA USED    *         0.00 MB       (max)       0.00 MB       (current)
 **********************************************************************************************************************************


 PROGRAM * OPT (Geometry optimization)     Authors: F. Eckert and H.-J. Werner


 BFGS update of hessian

 Running default procedure: RHF-SCF000  CCSD(T)

 Geometry optimization using default procedure for command CCSD(T)

 Geometry written to block  1 of record 700
 

 Generated   3 symmetrical displacements

 Number of displacements for numerical gradient:      6

 Starting numerical gradient for CCSD(T)
 Starting task   1   Incrementing displacement  1 by  1.   CPU=    0.00 sec, Elapsed=    0.00 sec


 Reading current basis input from record  610.1

 Recomputing integrals since geometry changed

1PROGRAM * SEWARD (Integral evaluation for generally contracted gaussian basis sets)     Author: Roland Lindh, 1990

 Geometry written to block  1 of record 700


 Point group  Cs  



 ATOMIC COORDINATES

 NR  ATOM    CHARGE       X              Y              Z

   1  O       8.00    0.000000000   -0.000062831   -0.123917577
   2  H       1.00    0.000000000   -1.422551242    1.020523292
   3  H       1.00    0.000000000    1.423582501    1.019680554

 Bond lengths in Bohr (Angstrom)

 1-2  1.825710323  1-3  1.826083984
     ( 0.966124293)     ( 0.966322026)

 Bond angles

  2-1-3  102.40760802

 NUCLEAR CHARGE:                   10
 NUMBER OF PRIMITIVE AOS:          41
 NUMBER OF SYMMETRY AOS:           40
 NUMBER OF CONTRACTIONS:           24   (  18A'  +   6A"  )
 NUMBER OF CORE ORBITALS:           1   (   1A'  +   0A"  )
 NUMBER OF VALENCE ORBITALS:        6   (   5A'  +   1A"  )


 NUCLEAR REPULSION ENERGY    9.11416948


 Eigenvalues of metric

         1 0.176E-01 0.460E-01 0.518E-01 0.989E-01 0.160E+00 0.172E+00 0.223E+00 0.525E+00
         2 0.183E+00 0.529E+00 0.628E+00 0.110E+01 0.132E+01 0.224E+01


 Contracted 2-electron integrals neglected if value below      1.0D-16
 AO integral compression algorithm  1   Integral accuracy      1.0D-16

     0.786 MB (compressed) written to integral file (100.0%)

     Node minimum: 0.262 MB, node maximum: 0.262 MB


 NUMBER OF SORTED TWO-ELECTRON INTEGRALS:       8634.     BUFFER LENGTH:  32768
 NUMBER OF SEGMENTS:   1  SEGMENT LENGTH:       8634      RECORD LENGTH: 524288

 Memory used in sort:       0.57 MW

 SORT1 READ       31790. AND WROTE        7845. INTEGRALS IN      1 RECORDS. CPU TIME:     0.00 SEC, REAL TIME:     0.01 SEC
 SORT2 READ       23239. AND WROTE       25710. INTEGRALS IN      3 RECORDS. CPU TIME:     0.01 SEC, REAL TIME:     0.00 SEC

 Node minimum:        8506.  Node maximum:        8634. integrals

 OPERATOR DM      FOR CENTER  0  COORDINATES:    0.000000    0.000000    0.000000
1PROGRAM * RHF-SCF (CLOSED SHELL)       Authors: W. Meyer, H.-J. Werner


 NUMBER OF ELECTRONS:       5+    5-
 CONVERGENCE THRESHOLDS:    1.00E-10 (Density)    1.00E-11 (Energy)
 MAX. NUMBER OF ITERATIONS:       60
 INTERPOLATION TYPE:            DIIS
 INTERPOLATION STEPS:              2 (START)      1 (STEP)
 LEVEL SHIFTS:                  0.00 (CLOSED)  0.00 (OPEN) 

 Number of closed-shell orbitals:    5 (   4   1 )


 Molecular orbitals read from record     2100.2  Type=RHF/CANONICAL (state 1.1)

 Molecular orbital dump at record        2100.1

 ITERATION    DDIFF          GRAD             ENERGY        2-EL.EN.            DIPOLE MOMENTS         DIIS
    1      0.000D+00      0.000D+00       -76.02616018     75.717488    0.00000    0.00036    0.82499    0
    2      0.000D+00      0.319D-03       -76.02616575     75.721181    0.00000    0.00036    0.82462    1
    3      0.714D-03      0.675D-04       -76.02616606     75.719373    0.00000    0.00036    0.82467    2
    4      0.188D-03      0.139D-04       -76.02616607     75.720770    0.00000    0.00036    0.82483    3
    5      0.214D-04      0.598D-05       -76.02616608     75.720463    0.00000    0.00036    0.82486    4
    6      0.104D-04      0.104D-05       -76.02616608     75.720472    0.00000    0.00036    0.82488    5
    7      0.275D-05      0.184D-06       -76.02616608     75.720471    0.00000    0.00036    0.82488    6
    8      0.471D-06      0.411D-07       -76.02616608     75.720472    0.00000    0.00036    0.82488    6
    9      0.894D-07      0.991D-08       -76.02616608     75.720472    0.00000    0.00036    0.82488    6
   10      0.238D-07      0.130D-08       -76.02616608     75.720472    0.00000    0.00036    0.82488    6
   11      0.273D-08      0.265D-09       -76.02616608     75.720472    0.00000    0.00036    0.82488    6
   12      0.628D-09      0.105D-09       -76.02616608     75.720472    0.00000    0.00036    0.82488    6
   13      0.182D-09      0.275D-10       -76.02616608     75.720472    0.00000    0.00036    0.82488    6
   14      0.534D-10      0.238D-11       -76.02616608     75.720472    0.00000    0.00036    0.82488    0

 Final occupancy:   4   1

 !RHF STATE 1.1 Energy                -76.026166075963
 Nuclear energy                         9.11416948
 One-electron energy                 -123.00057136
 Two-electron energy                   37.86023581
 Virial quotient                       -1.00090041
 !RHF STATE 1.1 Dipole moment           0.00000000     0.00036352     0.82488414
 Dipole moment /Debye                   0.00000000     0.00092390     2.09650904

 Orbital energies:

         1.1          2.1          3.1          4.1          5.1          6.1
    -20.553162    -1.333850    -0.690526    -0.569227     0.183618     0.255139

         1.2          2.2          3.2
     -0.493286     1.199674     1.480961


 **********************************************************************************************************************************
 DATASETS  * FILE   NREC   LENGTH (MB)   RECORD NAMES
              1      19        2.64       500      610      700      900      950      970     1000      129      960     1100   
                                          VAR    BASINP    GEOM    SYMINP    ZMAT    AOBASIS   BASIS     P2S    ABASIS      S 
                                         1400     1410     1200     1210     1080     1600     1650     1700     2100   
                                           T        V       H0       H01     AOSYM     SMH    MOLCAS    OPER      RHF  

              2       4        0.31       700     1000     2100     5600   
                                         GEOM     BASIS     RHF     GINFO   

 PROGRAMS   *        TOTAL       RHF   CCSD(T)       RHF       INT
 CPU TIMES  *         2.09      0.28      0.03      0.02      0.48
 REAL TIME  *         2.94 SEC
 DISK USED  *        22.78 MB      
 SF USED    *         0.31 MB      
 GA USED    *         0.00 MB       (max)       0.00 MB       (current)
 **********************************************************************************************************************************


 Reading current basis input from record  610.1

1PROGRAM * CCSD (Closed-shell coupled cluster)     Authors: C. Hampel, H.-J. Werner, 1991, M. Deegan, P.J. Knowles, 1992


 Convergence thresholds:  THRVAR = 1.00D-14  THRDEN = 1.00D-10

 CCSD(T)     terms to be evaluated (factor= 1.000)


 Number of core orbitals:           1 (   1   0 )
 Number of closed-shell orbitals:   4 (   3   1 )
 Number of external orbitals:      19 (  14   5 )

 Molecular orbitals read from record     2100.1  Type=RHF/CANONICAL (state 1.1)

 Number of N-1 electron functions:               4
 Number of N-2 electron functions:              10
 Number of singly external CSFs:                47
 Number of doubly external CSFs:              1563
 Total number of CSFs:                        1611

 Length of J-op  integral file:               0.00 MB
 Length of K-op  integral file:               0.03 MB
 Length of 3-ext integral record:             0.00 MB

 Memory could be reduced to 0.31 Mwords without degradation in triples

 Integral transformation finished. Total CPU:   0.01 sec, npass=  1  Memory used:   0.09 MW

 Reference energy:                    -76.02616608

 MP2 singlet pair energy:              -0.12616934
 MP2 triplet pair energy:              -0.07631948
 MP2 correlation energy:               -0.20248883
 MP2 total energy:                    -76.22865490

 SCS-MP2 correlation energy:           -0.19889089   (PS=  1.200000  PT=  0.333333)
 SCS-MP2 total energy:                -76.22505697

 ITER.      SQ.NORM     CORR.ENERGY   TOTAL ENERGY   ENERGY CHANGE        DEN1      VAR(S)    VAR(P)  DIIS     TIME
   1      1.05336789    -0.21100806   -76.23717413    -0.00851923    -0.00488228  0.29D-03  0.69D-03  1  1     0.01
   2      1.05660457    -0.21195641   -76.23812248    -0.00094835    -0.00393612  0.54D-05  0.60D-04  2  2     0.01
   3      1.05741985    -0.21203316   -76.23819923    -0.00007675    -0.00061092  0.21D-05  0.24D-05  3  3     0.01
   4      1.05760573    -0.21203620   -76.23820228    -0.00000305    -0.00010047  0.13D-06  0.14D-06  4  4     0.01
   5      1.05764062    -0.21203471   -76.23820078     0.00000150    -0.00001600  0.35D-07  0.79D-08  5  5     0.01
   6      1.05764550    -0.21203464   -76.23820072     0.00000007     0.00000037  0.43D-08  0.85D-09  6  6     0.01
   7      1.05764826    -0.21203458   -76.23820066     0.00000006    -0.00000027  0.16D-09  0.71D-10  6  1     0.01
   8      1.05764864    -0.21203453   -76.23820061     0.00000005     0.00000007  0.43D-11  0.50D-11  6  2     0.01
   9      1.05764874    -0.21203452   -76.23820060     0.00000001    -0.00000006  0.10D-12  0.31D-12  6  3     0.02
  10      1.05764877    -0.21203452   -76.23820060     0.00000000    -0.00000002  0.21D-14  0.89D-14  6  4     0.02
  11      1.05764878    -0.21203452   -76.23820060     0.00000000    -0.00000000  0.18D-15  0.34D-15  6  6     0.02
  12      1.05764878    -0.21203452   -76.23820060     0.00000000    -0.00000000  0.30D-17  0.13D-16  6  5     0.02

 Norm of t1 vector:      0.02421144      S-energy:     0.00000000      T1 diagnostic:  0.00605286
                                                                       D1 diagnostic:  0.01142430

 Doubles amplitudes (print threshold =  0.500E-01):

         I         J         SYM. A    SYM. B    A         B      T(IJ, AB)

         4         4         2         2         1         1     -0.05143167

 Total CPU time for triples:      0.00 sec


 RESULTS
 =======

  Reference energy                    -76.026166075963
  CCSD singlet pair energy             -0.144008441864
  CCSD triplet pair energy             -0.068026079037
  CCSD correlation energy              -0.212034520896

  Triples (T) contribution             -0.003098027903
  Total correlation energy             -0.215132548799

  CCSD total energy                   -76.238200596858
  CCSD[T] energy                      -76.241387050549
  CCSD-T energy                       -76.241241912536
 !CCSD(T) total energy                -76.241298624762

 Timing summary (sec):

 STEP                 CPU(USER)    SYS     CPU(TOT)    WALL
 Transformation          0.01      0.00      0.01      0.00
 CCSD iterations         0.01      0.00      0.01      0.04

 Program statistics:

 Available memory in ccsd:               999999236
 Min. memory needed in ccsd:                 10413
 Max. memory used in ccsd:                   11148
 Max. memory used in cckext:                 44198 (12 integral passes)



 **********************************************************************************************************************************
 DATASETS  * FILE   NREC   LENGTH (MB)   RECORD NAMES
              1      20        2.75       500      610      700      900      950      970     1000      129      960     1100   
                                          VAR    BASINP    GEOM    SYMINP    ZMAT    AOBASIS   BASIS     P2S    ABASIS      S 
                                         1400     1410     1200     1210     1080     1600     1650     1700     2100     1380   
                                           T        V       H0       H01     AOSYM     SMH    MOLCAS    OPER      RHF     JKOP   

              2       4        0.31       700     1000     2100     5600   
                                         GEOM     BASIS     RHF     GINFO   

 PROGRAMS   *        TOTAL   CCSD(T)   CCSD(T)       RHF       INT
 CPU TIMES  *         2.12      0.03      0.03      0.02      0.48
 REAL TIME  *         3.00 SEC
 DISK USED  *        22.84 MB      
 SF USED    *         0.31 MB      
 GA USED    *         0.00 MB       (max)       0.00 MB       (current)
 **********************************************************************************************************************************
 Starting task   2   Incrementing displacement  1 by -1.   CPU=    0.32 sec, Elapsed=    0.38 sec


 Reading current basis input from record  610.1

 Recomputing integrals since geometry changed

1PROGRAM * SEWARD (Integral evaluation for generally contracted gaussian basis sets)     Author: Roland Lindh, 1990

 Geometry written to block  1 of record 700


 Point group  Cs  



 ATOMIC COORDINATES

 NR  ATOM    CHARGE       X              Y              Z

   1  O       8.00    0.000000000   -0.000067392   -0.133762673
   2  H       1.00    0.000000000   -1.411265986    1.025442666
   3  H       1.00    0.000000000    1.412301806    1.024606275

 Bond lengths in Bohr (Angstrom)

 1-2  1.826263532  1-3  1.826637723
     ( 0.966417039)     ( 0.966615052)

 Bond angles

  2-1-3  101.24194267

 NUCLEAR CHARGE:                   10
 NUMBER OF PRIMITIVE AOS:          41
 NUMBER OF SYMMETRY AOS:           40
 NUMBER OF CONTRACTIONS:           24   (  18A'  +   6A"  )
 NUMBER OF CORE ORBITALS:           1   (   1A'  +   0A"  )
 NUMBER OF VALENCE ORBITALS:        6   (   5A'  +   1A"  )


 NUCLEAR REPULSION ENERGY    9.11432208


 Eigenvalues of metric

         1 0.175E-01 0.463E-01 0.518E-01 0.987E-01 0.160E+00 0.172E+00 0.224E+00 0.529E+00
         2 0.183E+00 0.528E+00 0.630E+00 0.111E+01 0.132E+01 0.224E+01


 Contracted 2-electron integrals neglected if value below      1.0D-16
 AO integral compression algorithm  1   Integral accuracy      1.0D-16

     0.786 MB (compressed) written to integral file (100.0%)

     Node minimum: 0.262 MB, node maximum: 0.262 MB


 NUMBER OF SORTED TWO-ELECTRON INTEGRALS:       8634.     BUFFER LENGTH:  32768
 NUMBER OF SEGMENTS:   1  SEGMENT LENGTH:       8634      RECORD LENGTH: 524288

 Memory used in sort:       0.57 MW

 SORT1 READ       31790. AND WROTE        7845. INTEGRALS IN      1 RECORDS. CPU TIME:     0.00 SEC, REAL TIME:     0.00 SEC
 SORT2 READ       23239. AND WROTE       25710. INTEGRALS IN      3 RECORDS. CPU TIME:     0.00 SEC, REAL TIME:     0.00 SEC

 Node minimum:        8506.  Node maximum:        8634. integrals

 OPERATOR DM      FOR CENTER  0  COORDINATES:    0.000000    0.000000    0.000000
1PROGRAM * RHF-SCF (CLOSED SHELL)       Authors: W. Meyer, H.-J. Werner


 NUMBER OF ELECTRONS:       5+    5-
 CONVERGENCE THRESHOLDS:    1.00E-10 (Density)    1.00E-11 (Energy)
 MAX. NUMBER OF ITERATIONS:       60
 INTERPOLATION TYPE:            DIIS
 INTERPOLATION STEPS:              2 (START)      1 (STEP)
 LEVEL SHIFTS:                  0.00 (CLOSED)  0.00 (OPEN) 

 Number of closed-shell orbitals:    5 (   4   1 )


 Molecular orbitals read from record     2100.2  Type=RHF/CANONICAL (state 1.1)

 Molecular orbital dump at record        2100.1

 ITERATION    DDIFF          GRAD             ENERGY        2-EL.EN.            DIPOLE MOMENTS         DIIS
    1      0.000D+00      0.000D+00       -76.02600208     75.716444    0.00000    0.00037    0.83171    0
    2      0.000D+00      0.319D-03       -76.02600766     75.712483    0.00000    0.00037    0.83205    1
    3      0.713D-03      0.679D-04       -76.02600797     75.714458    0.00000    0.00037    0.83200    2
    4      0.189D-03      0.147D-04       -76.02600799     75.712990    0.00000    0.00037    0.83184    3
    5      0.222D-04      0.599D-05       -76.02600799     75.713290    0.00000    0.00037    0.83180    4
    6      0.107D-04      0.104D-05       -76.02600799     75.713281    0.00000    0.00037    0.83178    5
    7      0.275D-05      0.185D-06       -76.02600799     75.713282    0.00000    0.00037    0.83178    6
    8      0.475D-06      0.409D-07       -76.02600799     75.713282    0.00000    0.00037    0.83178    6
    9      0.887D-07      0.100D-07       -76.02600799     75.713282    0.00000    0.00037    0.83178    6
   10      0.241D-07      0.131D-08       -76.02600799     75.713282    0.00000    0.00037    0.83178    6
   11      0.276D-08      0.270D-09       -76.02600799     75.713282    0.00000    0.00037    0.83178    6
   12      0.634D-09      0.108D-09       -76.02600799     75.713282    0.00000    0.00037    0.83178    6
   13      0.187D-09      0.272D-10       -76.02600799     75.713282    0.00000    0.00037    0.83178    6
   14      0.537D-10      0.246D-11       -76.02600799     75.713282    0.00000    0.00037    0.83178    0

 Final occupancy:   4   1

 !RHF STATE 1.1 Energy                -76.026007987514
 Nuclear energy                         9.11432208
 One-electron energy                 -122.99697100
 Two-electron energy                   37.85664094
 Virial quotient                       -1.00088942
 !RHF STATE 1.1 Dipole moment           0.00000000     0.00036532     0.83178277
 Dipole moment /Debye                   0.00000000     0.00092848     2.11404245

 Orbital energies:

         1.1          2.1          3.1          4.1          5.1          6.1
    -20.553837    -1.334639    -0.688113    -0.571569     0.183307     0.255216

         1.2          2.2          3.2
     -0.493687     1.199357     1.484928


 **********************************************************************************************************************************
 DATASETS  * FILE   NREC   LENGTH (MB)   RECORD NAMES
              1      19        2.64       500      610      700      900      950      970     1000      129      960     1100   
                                          VAR    BASINP    GEOM    SYMINP    ZMAT    AOBASIS   BASIS     P2S    ABASIS      S 
                                         1400     1410     1200     1210     1080     1600     1650     1700     2100   
                                           T        V       H0       H01     AOSYM     SMH    MOLCAS    OPER      RHF  

              2       4        0.31       700     1000     2100     5600   
                                         GEOM     BASIS     RHF     GINFO   

 PROGRAMS   *        TOTAL       RHF   CCSD(T)       RHF       INT
 CPU TIMES  *         2.40      0.28      0.03      0.02      0.48
 REAL TIME  *         3.32 SEC
 DISK USED  *        22.94 MB      
 SF USED    *         0.31 MB      
 GA USED    *         0.00 MB       (max)       0.00 MB       (current)
 **********************************************************************************************************************************


 Reading current basis input from record  610.1

1PROGRAM * CCSD (Closed-shell coupled cluster)     Authors: C. Hampel, H.-J. Werner, 1991, M. Deegan, P.J. Knowles, 1992


 Convergence thresholds:  THRVAR = 1.00D-14  THRDEN = 1.00D-10

 CCSD(T)     terms to be evaluated (factor= 1.000)


 Number of core orbitals:           1 (   1   0 )
 Number of closed-shell orbitals:   4 (   3   1 )
 Number of external orbitals:      19 (  14   5 )

 Molecular orbitals read from record     2100.1  Type=RHF/CANONICAL (state 1.1)

 Number of N-1 electron functions:               4
 Number of N-2 electron functions:              10
 Number of singly external CSFs:                47
 Number of doubly external CSFs:              1563
 Total number of CSFs:                        1611

 Length of J-op  integral file:               0.00 MB
 Length of K-op  integral file:               0.03 MB
 Length of 3-ext integral record:             0.00 MB

 Memory could be reduced to 0.31 Mwords without degradation in triples

 Integral transformation finished. Total CPU:   0.00 sec, npass=  1  Memory used:   0.09 MW

 Reference energy:                    -76.02600799

 MP2 singlet pair energy:              -0.12625826
 MP2 triplet pair energy:              -0.07638624
 MP2 correlation energy:               -0.20264449
 MP2 total energy:                    -76.22865248

 SCS-MP2 correlation energy:           -0.19903912   (PS=  1.200000  PT=  0.333333)
 SCS-MP2 total energy:                -76.22504711

 ITER.      SQ.NORM     CORR.ENERGY   TOTAL ENERGY   ENERGY CHANGE        DEN1      VAR(S)    VAR(P)  DIIS     TIME
   1      1.05344193    -0.21114591   -76.23715389    -0.00850141    -0.00485484  0.29D-03  0.69D-03  1  1     0.01
   2      1.05668769    -0.21209459   -76.23810258    -0.00094869    -0.00394280  0.54D-05  0.60D-04  2  2     0.01
   3      1.05750762    -0.21217152   -76.23817951    -0.00007693    -0.00061359  0.21D-05  0.24D-05  3  3     0.01
   4      1.05769492    -0.21217458   -76.23818256    -0.00000306    -0.00010123  0.12D-06  0.14D-06  4  4     0.01
   5      1.05772977    -0.21217307   -76.23818106     0.00000151    -0.00001603  0.34D-07  0.78D-08  5  5     0.01
   6      1.05773454    -0.21217300   -76.23818098     0.00000007     0.00000037  0.42D-08  0.83D-09  6  6     0.01
   7      1.05773724    -0.21217294   -76.23818093     0.00000006    -0.00000027  0.16D-09  0.70D-10  6  1     0.01
   8      1.05773761    -0.21217289   -76.23818088     0.00000005     0.00000007  0.44D-11  0.50D-11  6  2     0.01
   9      1.05773772    -0.21217288   -76.23818087     0.00000001    -0.00000006  0.11D-12  0.31D-12  6  3     0.01
  10      1.05773775    -0.21217288   -76.23818087     0.00000000    -0.00000002  0.22D-14  0.89D-14  6  4     0.01
  11      1.05773776    -0.21217288   -76.23818087     0.00000000    -0.00000000  0.18D-15  0.34D-15  6  6     0.02
  12      1.05773776    -0.21217288   -76.23818087     0.00000000    -0.00000000  0.26D-17  0.13D-16  6  5     0.02

 Norm of t1 vector:      0.02429946      S-energy:     0.00000000      T1 diagnostic:  0.00607487
                                                                       D1 diagnostic:  0.01140207

 Doubles amplitudes (print threshold =  0.500E-01):

         I         J         SYM. A    SYM. B    A         B      T(IJ, AB)

         4         4         2         2         1         1     -0.05142540

 Total CPU time for triples:      0.00 sec


 RESULTS
 =======

  Reference energy                    -76.026007987514
  CCSD singlet pair energy             -0.144103586724
  CCSD triplet pair energy             -0.068069292338
  CCSD correlation energy              -0.212172879054

  Triples (T) contribution             -0.003112483233
  Total correlation energy             -0.215285362287

  CCSD total energy                   -76.238180866568
  CCSD[T] energy                      -76.241382493981
  CCSD-T energy                       -76.241236160051
 !CCSD(T) total energy                -76.241293349801

 Timing summary (sec):

 STEP                 CPU(USER)    SYS     CPU(TOT)    WALL
 CCSD iterations         0.02      0.00      0.02      0.05

 Program statistics:

 Available memory in ccsd:               999999236
 Min. memory needed in ccsd:                 10413
 Max. memory used in ccsd:                   11148
 Max. memory used in cckext:                 44198 (12 integral passes)



 **********************************************************************************************************************************
 DATASETS  * FILE   NREC   LENGTH (MB)   RECORD NAMES
              1      20        2.75       500      610      700      900      950      970     1000      129      960     1100   
                                          VAR    BASINP    GEOM    SYMINP    ZMAT    AOBASIS   BASIS     P2S    ABASIS      S 
                                         1400     1410     1200     1210     1080     1600     1650     1700     2100     1380   
                                           T        V       H0       H01     AOSYM     SMH    MOLCAS    OPER      RHF     JKOP   

              2       4        0.31       700     1000     2100     5600   
                                         GEOM     BASIS     RHF     GINFO   

 PROGRAMS   *        TOTAL   CCSD(T)   CCSD(T)       RHF       INT
 CPU TIMES  *         2.43      0.03      0.03      0.02      0.48
 REAL TIME  *         3.38 SEC
 DISK USED  *        22.94 MB      
 SF USED    *         0.31 MB      
 GA USED    *         0.00 MB       (max)       0.00 MB       (current)
 **********************************************************************************************************************************
 Starting task   3   Incrementing displacement  2 by  1.   CPU=    0.65 sec, Elapsed=    0.76 sec


 Reading current basis input from record  610.1

 Recomputing integrals since geometry changed

1PROGRAM * SEWARD (Integral evaluation for generally contracted gaussian basis sets)     Author: Roland Lindh, 1990

 Geometry written to block  1 of record 700


 Point group  Cs  



 ATOMIC COORDINATES

 NR  ATOM    CHARGE       X              Y              Z

   1  O       8.00    0.000000000   -0.000046502   -0.122325918
   2  H       1.00    0.000000000   -1.412654875    1.019730835
   3  H       1.00    0.000000000    1.413669805    1.018881352

 Bond lengths in Bohr (Angstrom)

 1-2  1.816523064  1-3  1.816851074
     ( 0.961262605)     ( 0.961436181)

 Bond angles

  2-1-3  102.13354133

 NUCLEAR CHARGE:                   10
 NUMBER OF PRIMITIVE AOS:          41
 NUMBER OF SYMMETRY AOS:           40
 NUMBER OF CONTRACTIONS:           24   (  18A'  +   6A"  )
 NUMBER OF CORE ORBITALS:           1   (   1A'  +   0A"  )
 NUMBER OF VALENCE ORBITALS:        6   (   5A'  +   1A"  )


 NUCLEAR REPULSION ENERGY    9.16105699


 Eigenvalues of metric

         1 0.175E-01 0.454E-01 0.511E-01 0.985E-01 0.159E+00 0.171E+00 0.223E+00 0.521E+00
         2 0.183E+00 0.523E+00 0.624E+00 0.111E+01 0.132E+01 0.224E+01


 Contracted 2-electron integrals neglected if value below      1.0D-16
 AO integral compression algorithm  1   Integral accuracy      1.0D-16

     0.786 MB (compressed) written to integral file (100.0%)

     Node minimum: 0.262 MB, node maximum: 0.262 MB


 NUMBER OF SORTED TWO-ELECTRON INTEGRALS:       8634.     BUFFER LENGTH:  32768
 NUMBER OF SEGMENTS:   1  SEGMENT LENGTH:       8634      RECORD LENGTH: 524288

 Memory used in sort:       0.57 MW

 SORT1 READ       31790. AND WROTE        7845. INTEGRALS IN      1 RECORDS. CPU TIME:     0.00 SEC, REAL TIME:     0.00 SEC
 SORT2 READ       23239. AND WROTE       25710. INTEGRALS IN      3 RECORDS. CPU TIME:     0.00 SEC, REAL TIME:     0.01 SEC

 Node minimum:        8506.  Node maximum:        8634. integrals

 OPERATOR DM      FOR CENTER  0  COORDINATES:    0.000000    0.000000    0.000000
1PROGRAM * RHF-SCF (CLOSED SHELL)       Authors: W. Meyer, H.-J. Werner


 NUMBER OF ELECTRONS:       5+    5-
 CONVERGENCE THRESHOLDS:    1.00E-10 (Density)    1.00E-11 (Energy)
 MAX. NUMBER OF ITERATIONS:       60
 INTERPOLATION TYPE:            DIIS
 INTERPOLATION STEPS:              2 (START)      1 (STEP)
 LEVEL SHIFTS:                  0.00 (CLOSED)  0.00 (OPEN) 

 Number of closed-shell orbitals:    5 (   4   1 )


 Molecular orbitals read from record     2100.2  Type=RHF/CANONICAL (state 1.1)

 Molecular orbital dump at record        2100.1

 ITERATION    DDIFF          GRAD             ENERGY        2-EL.EN.            DIPOLE MOMENTS         DIIS
    1      0.000D+00      0.000D+00       -76.02645309     75.769346    0.00000    0.00035    0.82400    0
    2      0.000D+00      0.580D-03       -76.02647054     75.798800    0.00000    0.00035    0.82359    1
    3      0.150D-02      0.171D-03       -76.02647191     75.785806    0.00000    0.00035    0.82373    2
    4      0.349D-03      0.684D-04       -76.02647218     75.791960    0.00000    0.00035    0.82443    3
    5      0.104D-03      0.171D-04       -76.02647220     75.791328    0.00000    0.00035    0.82456    4
    6      0.337D-04      0.414D-05       -76.02647220     75.791353    0.00000    0.00035    0.82464    5
    7      0.113D-04      0.772D-06       -76.02647220     75.791351    0.00000    0.00035    0.82464    6
    8      0.207D-05      0.101D-06       -76.02647220     75.791352    0.00000    0.00035    0.82464    6
    9      0.210D-06      0.257D-07       -76.02647220     75.791352    0.00000    0.00035    0.82464    6
   10      0.607D-07      0.247D-08       -76.02647220     75.791352    0.00000    0.00035    0.82464    5
   11      0.556D-08      0.317D-09       -76.02647220     75.791352    0.00000    0.00035    0.82464    5
   12      0.696D-09      0.666D-10       -76.02647220     75.791352    0.00000    0.00035    0.82464    5
   13      0.149D-09      0.133D-10       -76.02647220     75.791352    0.00000    0.00035    0.82464    5
   14      0.255D-10      0.330D-11       -76.02647220     75.791352    0.00000    0.00035    0.82464    0

 Final occupancy:   4   1

 !RHF STATE 1.1 Energy                -76.026472204864
 Nuclear energy                         9.16105699
 One-electron energy                 -123.08320501
 Two-electron energy                   37.89567582
 Virial quotient                       -1.00065653
 !RHF STATE 1.1 Dipole moment           0.00000000     0.00035322     0.82464368
 Dipole moment /Debye                   0.00000000     0.00089774     2.09589789

 Orbital energies:

         1.1          2.1          3.1          4.1          5.1          6.1
    -20.552444    -1.336523    -0.692539    -0.570703     0.184372     0.255920

         1.2          2.2          3.2
     -0.493718     1.199710     1.483205


 **********************************************************************************************************************************
 DATASETS  * FILE   NREC   LENGTH (MB)   RECORD NAMES
              1      19        2.64       500      610      700      900      950      970     1000      129      960     1100   
                                          VAR    BASINP    GEOM    SYMINP    ZMAT    AOBASIS   BASIS     P2S    ABASIS      S 
                                         1400     1410     1200     1210     1080     1600     1650     1700     2100   
                                           T        V       H0       H01     AOSYM     SMH    MOLCAS    OPER      RHF  

              2       4        0.31       700     1000     2100     5600   
                                         GEOM     BASIS     RHF     GINFO   

 PROGRAMS   *        TOTAL       RHF   CCSD(T)       RHF       INT
 CPU TIMES  *         2.71      0.28      0.03      0.02      0.48
 REAL TIME  *         3.70 SEC
 DISK USED  *        22.94 MB      
 SF USED    *         0.31 MB      
 GA USED    *         0.00 MB       (max)       0.00 MB       (current)
 **********************************************************************************************************************************


 Reading current basis input from record  610.1

1PROGRAM * CCSD (Closed-shell coupled cluster)     Authors: C. Hampel, H.-J. Werner, 1991, M. Deegan, P.J. Knowles, 1992


 Convergence thresholds:  THRVAR = 1.00D-14  THRDEN = 1.00D-10

 CCSD(T)     terms to be evaluated (factor= 1.000)


 Number of core orbitals:           1 (   1   0 )
 Number of closed-shell orbitals:   4 (   3   1 )
 Number of external orbitals:      19 (  14   5 )

 Molecular orbitals read from record     2100.1  Type=RHF/CANONICAL (state 1.1)

 Number of N-1 electron functions:               4
 Number of N-2 electron functions:              10
 Number of singly external CSFs:                47
 Number of doubly external CSFs:              1563
 Total number of CSFs:                        1611

 Length of J-op  integral file:               0.00 MB
 Length of K-op  integral file:               0.03 MB
 Length of 3-ext integral record:             0.00 MB

 Memory could be reduced to 0.31 Mwords without degradation in triples

 Integral transformation finished. Total CPU:   0.01 sec, npass=  1  Memory used:   0.09 MW

 Reference energy:                    -76.02647220

 MP2 singlet pair energy:              -0.12592254
 MP2 triplet pair energy:              -0.07624787
 MP2 correlation energy:               -0.20217041
 MP2 total energy:                    -76.22864261

 SCS-MP2 correlation energy:           -0.19855016   (PS=  1.200000  PT=  0.333333)
 SCS-MP2 total energy:                -76.22502237

 ITER.      SQ.NORM     CORR.ENERGY   TOTAL ENERGY   ENERGY CHANGE        DEN1      VAR(S)    VAR(P)  DIIS     TIME
   1      1.05310597    -0.21069936   -76.23717156    -0.00852895    -0.00492803  0.28D-03  0.68D-03  1  1     0.01
   2      1.05628927    -0.21163336   -76.23810556    -0.00093400    -0.00390008  0.52D-05  0.58D-04  2  2     0.01
   3      1.05708053    -0.21170813   -76.23818034    -0.00007477    -0.00059776  0.20D-05  0.23D-05  3  3     0.01
   4      1.05725952    -0.21171093   -76.23818314    -0.00000280    -0.00009772  0.12D-06  0.13D-06  4  4     0.01
   5      1.05729257    -0.21170947   -76.23818168     0.00000146    -0.00001541  0.32D-07  0.73D-08  5  5     0.01
   6      1.05729704    -0.21170941   -76.23818162     0.00000006     0.00000038  0.40D-08  0.78D-09  6  6     0.01
   7      1.05729963    -0.21170936   -76.23818156     0.00000005    -0.00000026  0.16D-09  0.65D-10  6  1     0.01
   8      1.05729999    -0.21170931   -76.23818151     0.00000005     0.00000006  0.39D-11  0.46D-11  6  2     0.01
   9      1.05730009    -0.21170930   -76.23818150     0.00000001    -0.00000005  0.96D-13  0.28D-12  6  3     0.02
  10      1.05730012    -0.21170930   -76.23818150     0.00000000    -0.00000002  0.19D-14  0.80D-14  6  4     0.02
  11      1.05730012    -0.21170930   -76.23818150     0.00000000    -0.00000000  0.15D-15  0.30D-15  6  6     0.02
  12      1.05730012    -0.21170930   -76.23818150     0.00000000    -0.00000000  0.25D-17  0.12D-16  6  5     0.02

 Norm of t1 vector:      0.02391331      S-energy:     0.00000000      T1 diagnostic:  0.00597833
                                                                       D1 diagnostic:  0.01121682

 Doubles amplitudes (print threshold =  0.500E-01):

         I         J         SYM. A    SYM. B    A         B      T(IJ, AB)

         4         4         2         2         1         1     -0.05140919

 Total CPU time for triples:      0.00 sec


 RESULTS
 =======

  Reference energy                    -76.026472204864
  CCSD singlet pair energy             -0.143673854681
  CCSD triplet pair energy             -0.068035442070
  CCSD correlation energy              -0.211709296743

  Triples (T) contribution             -0.003077932874
  Total correlation energy             -0.214787229617

  CCSD total energy                   -76.238181501607
  CCSD[T] energy                      -76.241346620187
  CCSD-T energy                       -76.241203403642
 !CCSD(T) total energy                -76.241259434481

 Timing summary (sec):

 STEP                 CPU(USER)    SYS     CPU(TOT)    WALL
 Transformation          0.01      0.00      0.01      0.01
 CCSD iterations         0.01      0.01      0.02      0.03

 Program statistics:

 Available memory in ccsd:               999999236
 Min. memory needed in ccsd:                 10413
 Max. memory used in ccsd:                   11148
 Max. memory used in cckext:                 44198 (12 integral passes)



 **********************************************************************************************************************************
 DATASETS  * FILE   NREC   LENGTH (MB)   RECORD NAMES
              1      20        2.75       500      610      700      900      950      970     1000      129      960     1100   
                                          VAR    BASINP    GEOM    SYMINP    ZMAT    AOBASIS   BASIS     P2S    ABASIS      S 
                                         1400     1410     1200     1210     1080     1600     1650     1700     2100     1380   
                                           T        V       H0       H01     AOSYM     SMH    MOLCAS    OPER      RHF     JKOP   

              2       4        0.31       700     1000     2100     5600   
                                         GEOM     BASIS     RHF     GINFO   

 PROGRAMS   *        TOTAL   CCSD(T)   CCSD(T)       RHF       INT
 CPU TIMES  *         2.74      0.03      0.03      0.02      0.48
 REAL TIME  *         3.77 SEC
 DISK USED  *        22.94 MB      
 SF USED    *         0.31 MB      
 GA USED    *         0.00 MB       (max)       0.00 MB       (current)
 **********************************************************************************************************************************
 Starting task   4   Incrementing displacement  2 by -1.   CPU=    0.98 sec, Elapsed=    1.15 sec


 Reading current basis input from record  610.1

 Recomputing integrals since geometry changed

1PROGRAM * SEWARD (Integral evaluation for generally contracted gaussian basis sets)     Author: Roland Lindh, 1990

 Geometry written to block  1 of record 700


 Point group  Cs  



 ATOMIC COORDINATES

 NR  ATOM    CHARGE       X              Y              Z

   1  O       8.00    0.000000000   -0.000083722   -0.135354332
   2  H       1.00    0.000000000   -1.421162353    1.026235124
   3  H       1.00    0.000000000    1.422214502    1.025405477

 Bond lengths in Bohr (Angstrom)

 1-2  1.835416722  1-3  1.835836477
     ( 0.971260698)     ( 0.971482823)

 Bond angles

  2-1-3  101.51901939

 NUCLEAR CHARGE:                   10
 NUMBER OF PRIMITIVE AOS:          41
 NUMBER OF SYMMETRY AOS:           40
 NUMBER OF CONTRACTIONS:           24   (  18A'  +   6A"  )
 NUMBER OF CORE ORBITALS:           1   (   1A'  +   0A"  )
 NUMBER OF VALENCE ORBITALS:        6   (   5A'  +   1A"  )


 NUCLEAR REPULSION ENERGY    9.06806426


 Eigenvalues of metric

         1 0.176E-01 0.469E-01 0.524E-01 0.991E-01 0.161E+00 0.173E+00 0.224E+00 0.532E+00
         2 0.183E+00 0.533E+00 0.634E+00 0.111E+01 0.131E+01 0.223E+01


 Contracted 2-electron integrals neglected if value below      1.0D-16
 AO integral compression algorithm  1   Integral accuracy      1.0D-16

     0.786 MB (compressed) written to integral file (100.0%)

     Node minimum: 0.262 MB, node maximum: 0.262 MB


 NUMBER OF SORTED TWO-ELECTRON INTEGRALS:       8634.     BUFFER LENGTH:  32768
 NUMBER OF SEGMENTS:   1  SEGMENT LENGTH:       8634      RECORD LENGTH: 524288

 Memory used in sort:       0.57 MW

 SORT1 READ       31790. AND WROTE        7845. INTEGRALS IN      1 RECORDS. CPU TIME:     0.00 SEC, REAL TIME:     0.01 SEC
 SORT2 READ       23239. AND WROTE       25710. INTEGRALS IN      3 RECORDS. CPU TIME:     0.00 SEC, REAL TIME:     0.00 SEC

 Node minimum:        8506.  Node maximum:        8634. integrals

 OPERATOR DM      FOR CENTER  0  COORDINATES:    0.000000    0.000000    0.000000
1PROGRAM * RHF-SCF (CLOSED SHELL)       Authors: W. Meyer, H.-J. Werner


 NUMBER OF ELECTRONS:       5+    5-
 CONVERGENCE THRESHOLDS:    1.00E-10 (Density)    1.00E-11 (Energy)
 MAX. NUMBER OF ITERATIONS:       60
 INTERPOLATION TYPE:            DIIS
 INTERPOLATION STEPS:              2 (START)      1 (STEP)
 LEVEL SHIFTS:                  0.00 (CLOSED)  0.00 (OPEN) 

 Number of closed-shell orbitals:    5 (   4   1 )


 Molecular orbitals read from record     2100.2  Type=RHF/CANONICAL (state 1.1)

 Molecular orbital dump at record        2100.1

 ITERATION    DDIFF          GRAD             ENERGY        2-EL.EN.            DIPOLE MOMENTS         DIIS
    1      0.000D+00      0.000D+00       -76.02560759     75.664931    0.00000    0.00038    0.83267    0
    2      0.000D+00      0.576D-03       -76.02562492     75.635820    0.00000    0.00038    0.83307    1
    3      0.149D-02      0.169D-03       -76.02562628     75.648734    0.00000    0.00038    0.83294    2
    4      0.347D-03      0.684D-04       -76.02562655     75.642519    0.00000    0.00038    0.83222    3
    5      0.104D-03      0.175D-04       -76.02562657     75.643166    0.00000    0.00038    0.83209    4
    6      0.343D-04      0.423D-05       -76.02562658     75.643142    0.00000    0.00038    0.83201    5
    7      0.115D-04      0.797D-06       -76.02562658     75.643144    0.00000    0.00038    0.83200    6
    8      0.215D-05      0.106D-06       -76.02562658     75.643143    0.00000    0.00038    0.83200    6
    9      0.221D-06      0.272D-07       -76.02562658     75.643143    0.00000    0.00038    0.83200    6
   10      0.648D-07      0.260D-08       -76.02562658     75.643143    0.00000    0.00038    0.83200    5
   11      0.585D-08      0.324D-09       -76.02562658     75.643143    0.00000    0.00038    0.83200    5
   12      0.707D-09      0.733D-10       -76.02562658     75.643143    0.00000    0.00038    0.83200    5
   13      0.163D-09      0.873D-11       -76.02562658     75.643143    0.00000    0.00038    0.83200    5
   14      0.179D-10      0.181D-11       -76.02562658     75.643143    0.00000    0.00038    0.83200    0

 Final occupancy:   4   1

 !RHF STATE 1.1 Energy                -76.025626576648
 Nuclear energy                         9.06806426
 One-electron energy                 -122.91526241
 Two-electron energy                   37.82157158
 Virial quotient                       -1.00112704
 !RHF STATE 1.1 Dipole moment           0.00000000     0.00037529     0.83200284
 Dipole moment /Debye                   0.00000000     0.00095383     2.11460177

 Orbital energies:

         1.1          2.1          3.1          4.1          5.1          6.1
    -20.554553    -1.332001    -0.686154    -0.570087     0.182556     0.254417

         1.2          2.2          3.2
     -0.493266     1.199278     1.482666


 **********************************************************************************************************************************
 DATASETS  * FILE   NREC   LENGTH (MB)   RECORD NAMES
              1      19        2.64       500      610      700      900      950      970     1000      129      960     1100   
                                          VAR    BASINP    GEOM    SYMINP    ZMAT    AOBASIS   BASIS     P2S    ABASIS      S 
                                         1400     1410     1200     1210     1080     1600     1650     1700     2100   
                                           T        V       H0       H01     AOSYM     SMH    MOLCAS    OPER      RHF  

              2       4        0.31       700     1000     2100     5600   
                                         GEOM     BASIS     RHF     GINFO   

 PROGRAMS   *        TOTAL       RHF   CCSD(T)       RHF       INT
 CPU TIMES  *         3.02      0.28      0.03      0.02      0.48
 REAL TIME  *         4.09 SEC
 DISK USED  *        22.94 MB      
 SF USED    *         0.31 MB      
 GA USED    *         0.00 MB       (max)       0.00 MB       (current)
 **********************************************************************************************************************************


 Reading current basis input from record  610.1

1PROGRAM * CCSD (Closed-shell coupled cluster)     Authors: C. Hampel, H.-J. Werner, 1991, M. Deegan, P.J. Knowles, 1992


 Convergence thresholds:  THRVAR = 1.00D-14  THRDEN = 1.00D-10

 CCSD(T)     terms to be evaluated (factor= 1.000)


 Number of core orbitals:           1 (   1   0 )
 Number of closed-shell orbitals:   4 (   3   1 )
 Number of external orbitals:      19 (  14   5 )

 Molecular orbitals read from record     2100.1  Type=RHF/CANONICAL (state 1.1)

 Number of N-1 electron functions:               4
 Number of N-2 electron functions:              10
 Number of singly external CSFs:                47
 Number of doubly external CSFs:              1563
 Total number of CSFs:                        1611

 Length of J-op  integral file:               0.00 MB
 Length of K-op  integral file:               0.03 MB
 Length of 3-ext integral record:             0.00 MB

 Memory could be reduced to 0.31 Mwords without degradation in triples

 Integral transformation finished. Total CPU:   0.00 sec, npass=  1  Memory used:   0.09 MW

 Reference energy:                    -76.02562658

 MP2 singlet pair energy:              -0.12650508
 MP2 triplet pair energy:              -0.07645658
 MP2 correlation energy:               -0.20296166
 MP2 total energy:                    -76.22858824

 SCS-MP2 correlation energy:           -0.19937908   (PS=  1.200000  PT=  0.333333)
 SCS-MP2 total energy:                -76.22500566

 ITER.      SQ.NORM     CORR.ENERGY   TOTAL ENERGY   ENERGY CHANGE        DEN1      VAR(S)    VAR(P)  DIIS     TIME
   1      1.05370518    -0.21145348   -76.23708006    -0.00849182    -0.00480865  0.29D-03  0.70D-03  1  1     0.01
   2      1.05700538    -0.21241672   -76.23804330    -0.00096324    -0.00397926  0.56D-05  0.62D-04  2  2     0.01
   3      1.05785019    -0.21249570   -76.23812228    -0.00007898    -0.00062707  0.22D-05  0.25D-05  3  3     0.01
   4      1.05804464    -0.21249901   -76.23812559    -0.00000331    -0.00010407  0.13D-06  0.15D-06  4  4     0.01
   5      1.05808140    -0.21249747   -76.23812404     0.00000154    -0.00001663  0.37D-07  0.84D-08  5  5     0.01
   6      1.05808661    -0.21249739   -76.23812397     0.00000008     0.00000036  0.45D-08  0.90D-09  6  6     0.01
   7      1.05808948    -0.21249733   -76.23812391     0.00000006    -0.00000028  0.17D-09  0.75D-10  6  1     0.01
   8      1.05808986    -0.21249728   -76.23812386     0.00000005     0.00000008  0.48D-11  0.55D-11  6  2     0.01
   9      1.05808998    -0.21249727   -76.23812385     0.00000001    -0.00000006  0.11D-12  0.34D-12  6  3     0.02
  10      1.05809001    -0.21249727   -76.23812385     0.00000000    -0.00000002  0.24D-14  0.99D-14  6  4     0.02
  11      1.05809002    -0.21249727   -76.23812385     0.00000000    -0.00000000  0.21D-15  0.38D-15  6  6     0.02
  12      1.05809002    -0.21249727   -76.23812385     0.00000000    -0.00000000  0.31D-17  0.15D-16  6  5     0.02

 Norm of t1 vector:      0.02460123      S-energy:     0.00000000      T1 diagnostic:  0.00615031
                                                                       D1 diagnostic:  0.01161134

 Doubles amplitudes (print threshold =  0.500E-01):

         I         J         SYM. A    SYM. B    A         B      T(IJ, AB)

         4         4         2         2         1         1     -0.05144287

 Total CPU time for triples:      0.00 sec


 RESULTS
 =======

  Reference energy                    -76.025626576648
  CCSD singlet pair energy             -0.144438993760
  CCSD triplet pair energy             -0.068058275789
  CCSD correlation energy              -0.212497269545

  Triples (T) contribution             -0.003132773041
  Total correlation energy             -0.215630042586

  CCSD total energy                   -76.238123846193
  CCSD[T] energy                      -76.241347038897
  CCSD-T energy                       -76.241198728150
 !CCSD(T) total energy                -76.241256619235

 Timing summary (sec):

 STEP                 CPU(USER)    SYS     CPU(TOT)    WALL
 Transformation          0.01      0.00      0.01      0.00
 CCSD iterations         0.01      0.00      0.01      0.05

 Program statistics:

 Available memory in ccsd:               999999236
 Min. memory needed in ccsd:                 10413
 Max. memory used in ccsd:                   11148
 Max. memory used in cckext:                 44198 (12 integral passes)



 **********************************************************************************************************************************
 DATASETS  * FILE   NREC   LENGTH (MB)   RECORD NAMES
              1      20        2.75       500      610      700      900      950      970     1000      129      960     1100   
                                          VAR    BASINP    GEOM    SYMINP    ZMAT    AOBASIS   BASIS     P2S    ABASIS      S 
                                         1400     1410     1200     1210     1080     1600     1650     1700     2100     1380   
                                           T        V       H0       H01     AOSYM     SMH    MOLCAS    OPER      RHF     JKOP   

              2       4        0.31       700     1000     2100     5600   
                                         GEOM     BASIS     RHF     GINFO   

 PROGRAMS   *        TOTAL   CCSD(T)   CCSD(T)       RHF       INT
 CPU TIMES  *         3.05      0.03      0.03      0.02      0.48
 REAL TIME  *         4.15 SEC
 DISK USED  *        22.94 MB      
 SF USED    *         0.31 MB      
 GA USED    *         0.00 MB       (max)       0.00 MB       (current)
 **********************************************************************************************************************************
 Starting task   5   Incrementing displacement  3 by  1.   CPU=    1.30 sec, Elapsed=    1.53 sec


 Reading current basis input from record  610.1

 Recomputing integrals since geometry changed

1PROGRAM * SEWARD (Integral evaluation for generally contracted gaussian basis sets)     Author: Roland Lindh, 1990

 Geometry written to block  1 of record 700


 Point group  Cs  



 ATOMIC COORDINATES

 NR  ATOM    CHARGE       X              Y              Z

   1  O       8.00    0.000000000    0.007327215   -0.128857221
   2  H       1.00    0.000000000   -1.420612880    1.025994001
   3  H       1.00    0.000000000    1.414254093    1.019149488

 Bond lengths in Bohr (Angstrom)

 1-2  1.836489657  1-3  1.815864159
     ( 0.971828471)     ( 0.960913928)

 Bond angles

  2-1-3  101.82235680

 NUCLEAR CHARGE:                   10
 NUMBER OF PRIMITIVE AOS:          41
 NUMBER OF SYMMETRY AOS:           40
 NUMBER OF CONTRACTIONS:           24   (  18A'  +   6A"  )
 NUMBER OF CORE ORBITALS:           1   (   1A'  +   0A"  )
 NUMBER OF VALENCE ORBITALS:        6   (   5A'  +   1A"  )


 NUCLEAR REPULSION ENERGY    9.11450181


 Eigenvalues of metric

         1 0.176E-01 0.461E-01 0.519E-01 0.988E-01 0.160E+00 0.172E+00 0.224E+00 0.526E+00
         2 0.183E+00 0.528E+00 0.629E+00 0.111E+01 0.132E+01 0.224E+01


 Contracted 2-electron integrals neglected if value below      1.0D-16
 AO integral compression algorithm  1   Integral accuracy      1.0D-16

     0.786 MB (compressed) written to integral file (100.0%)

     Node minimum: 0.262 MB, node maximum: 0.262 MB


 NUMBER OF SORTED TWO-ELECTRON INTEGRALS:       8634.     BUFFER LENGTH:  32768
 NUMBER OF SEGMENTS:   1  SEGMENT LENGTH:       8634      RECORD LENGTH: 524288

 Memory used in sort:       0.57 MW

 SORT1 READ       31790. AND WROTE        7845. INTEGRALS IN      1 RECORDS. CPU TIME:     0.00 SEC, REAL TIME:     0.00 SEC
 SORT2 READ       23239. AND WROTE       25710. INTEGRALS IN      3 RECORDS. CPU TIME:     0.00 SEC, REAL TIME:     0.00 SEC

 Node minimum:        8506.  Node maximum:        8634. integrals

 OPERATOR DM      FOR CENTER  0  COORDINATES:    0.000000    0.000000    0.000000
1PROGRAM * RHF-SCF (CLOSED SHELL)       Authors: W. Meyer, H.-J. Werner


 NUMBER OF ELECTRONS:       5+    5-
 CONVERGENCE THRESHOLDS:    1.00E-10 (Density)    1.00E-11 (Energy)
 MAX. NUMBER OF ITERATIONS:       60
 INTERPOLATION TYPE:            DIIS
 INTERPOLATION STEPS:              2 (START)      1 (STEP)
 LEVEL SHIFTS:                  0.00 (CLOSED)  0.00 (OPEN) 

 Number of closed-shell orbitals:    5 (   4   1 )


 Molecular orbitals read from record     2100.2  Type=RHF/CANONICAL (state 1.1)

 Molecular orbital dump at record        2100.1

 ITERATION    DDIFF          GRAD             ENERGY        2-EL.EN.            DIPOLE MOMENTS         DIIS
    1      0.000D+00      0.000D+00       -76.02601510     75.717020    0.00000   -0.00459    0.82835    0
    2      0.000D+00      0.628D-03       -76.02603651     75.717304    0.00000   -0.00734    0.82837    1
    3      0.171D-02      0.139D-03       -76.02603799     75.717058    0.00000   -0.00533    0.82835    2
    4      0.287D-03      0.361D-04       -76.02603813     75.717198    0.00000   -0.00484    0.82836    3
    5      0.820D-04      0.916D-05       -76.02603814     75.717069    0.00000   -0.00459    0.82835    4
    6      0.221D-04      0.145D-05       -76.02603814     75.717180    0.00000   -0.00457    0.82835    5
    7      0.264D-05      0.631D-06       -76.02603814     75.717132    0.00000   -0.00457    0.82835    6
    8      0.794D-06      0.119D-06       -76.02603814     75.717135    0.00000   -0.00457    0.82835    6
    9      0.204D-06      0.235D-07       -76.02603814     75.717134    0.00000   -0.00457    0.82835    6
   10      0.435D-07      0.181D-08       -76.02603814     75.717134    0.00000   -0.00457    0.82835    6
   11      0.364D-08      0.216D-09       -76.02603814     75.717134    0.00000   -0.00457    0.82835    6
   12      0.441D-09      0.434D-10       -76.02603814     75.717134    0.00000   -0.00457    0.82835    5
   13      0.789D-10      0.132D-10       -76.02603814     75.717134    0.00000   -0.00457    0.82835    0

 Final occupancy:   4   1

 !RHF STATE 1.1 Energy                -76.026038144437
 Nuclear energy                         9.11450181
 One-electron energy                 -122.99910718
 Two-electron energy                   37.85856723
 Virial quotient                       -1.00089159
 !RHF STATE 1.1 Dipole moment           0.00000000    -0.00456886     0.82834864
 Dipole moment /Debye                   0.00000000    -0.01161212     2.10531434

 Orbital energies:

         1.1          2.1          3.1          4.1          5.1          6.1
    -20.553499    -1.334274    -0.689331    -0.570391     0.183444     0.255183

         1.2          2.2          3.2
     -0.493491     1.199484     1.482975


 **********************************************************************************************************************************
 DATASETS  * FILE   NREC   LENGTH (MB)   RECORD NAMES
              1      19        2.64       500      610      700      900      950      970     1000      129      960     1100   
                                          VAR    BASINP    GEOM    SYMINP    ZMAT    AOBASIS   BASIS     P2S    ABASIS      S 
                                         1400     1410     1200     1210     1080     1600     1650     1700     2100   
                                           T        V       H0       H01     AOSYM     SMH    MOLCAS    OPER      RHF  

              2       4        0.31       700     1000     2100     5600   
                                         GEOM     BASIS     RHF     GINFO   

 PROGRAMS   *        TOTAL       RHF   CCSD(T)       RHF       INT
 CPU TIMES  *         3.33      0.28      0.03      0.02      0.48
 REAL TIME  *         4.47 SEC
 DISK USED  *        22.94 MB      
 SF USED    *         0.31 MB      
 GA USED    *         0.00 MB       (max)       0.00 MB       (current)
 **********************************************************************************************************************************


 Reading current basis input from record  610.1

1PROGRAM * CCSD (Closed-shell coupled cluster)     Authors: C. Hampel, H.-J. Werner, 1991, M. Deegan, P.J. Knowles, 1992


 Convergence thresholds:  THRVAR = 1.00D-14  THRDEN = 1.00D-10

 CCSD(T)     terms to be evaluated (factor= 1.000)


 Number of core orbitals:           1 (   1   0 )
 Number of closed-shell orbitals:   4 (   3   1 )
 Number of external orbitals:      19 (  14   5 )

 Molecular orbitals read from record     2100.1  Type=RHF/CANONICAL (state 1.1)

 Number of N-1 electron functions:               4
 Number of N-2 electron functions:              10
 Number of singly external CSFs:                47
 Number of doubly external CSFs:              1563
 Total number of CSFs:                        1611

 Length of J-op  integral file:               0.00 MB
 Length of K-op  integral file:               0.03 MB
 Length of 3-ext integral record:             0.00 MB

 Memory could be reduced to 0.31 Mwords without degradation in triples

 Integral transformation finished. Total CPU:   0.00 sec, npass=  1  Memory used:   0.09 MW

 Reference energy:                    -76.02603814

 MP2 singlet pair energy:              -0.12621381
 MP2 triplet pair energy:              -0.07635155
 MP2 correlation energy:               -0.20256536
 MP2 total energy:                    -76.22860350

 SCS-MP2 correlation energy:           -0.19896420   (PS=  1.200000  PT=  0.333333)
 SCS-MP2 total energy:                -76.22500234

 ITER.      SQ.NORM     CORR.ENERGY   TOTAL ENERGY   ENERGY CHANGE        DEN1      VAR(S)    VAR(P)  DIIS     TIME
   1      1.05340596    -0.21107632   -76.23711447    -0.00851096    -0.00486892  0.29D-03  0.69D-03  1  1     0.00
   2      1.05664788    -0.21202502   -76.23806316    -0.00094870    -0.00393977  0.54D-05  0.60D-04  2  2     0.00
   3      1.05746584    -0.21210188   -76.23814003    -0.00007686    -0.00061238  0.21D-05  0.24D-05  3  3     0.00
   4      1.05765255    -0.21210493   -76.23814308    -0.00000305    -0.00010089  0.13D-06  0.14D-06  4  4     0.00
   5      1.05768745    -0.21210343   -76.23814158     0.00000150    -0.00001602  0.34D-07  0.78D-08  5  5     0.01
   6      1.05769228    -0.21210336   -76.23814151     0.00000007     0.00000037  0.43D-08  0.84D-09  6  6     0.01
   7      1.05769501    -0.21210331   -76.23814145     0.00000006    -0.00000027  0.16D-09  0.70D-10  6  1     0.01
   8      1.05769538    -0.21210326   -76.23814140     0.00000005     0.00000007  0.44D-11  0.50D-11  6  2     0.01
   9      1.05769549    -0.21210325   -76.23814139     0.00000001    -0.00000006  0.11D-12  0.31D-12  6  3     0.01
  10      1.05769552    -0.21210324   -76.23814139     0.00000000    -0.00000002  0.22D-14  0.90D-14  6  4     0.01
  11      1.05769553    -0.21210324   -76.23814139     0.00000000    -0.00000000  0.19D-15  0.35D-15  6  6     0.01
  12      1.05769553    -0.21210324   -76.23814139     0.00000000    -0.00000000  0.51D-17  0.14D-16  6  5     0.01

 Norm of t1 vector:      0.02425825      S-energy:     0.00000000      T1 diagnostic:  0.00606456
                                                                       D1 diagnostic:  0.01143568

 Doubles amplitudes (print threshold =  0.500E-01):

         I         J         SYM. A    SYM. B    A         B      T(IJ, AB)

         4         4         2         2         1         1     -0.05142300

 Total CPU time for triples:      0.00 sec


 RESULTS
 =======

  Reference energy                    -76.026038144437
  CCSD singlet pair energy             -0.144056755862
  CCSD triplet pair energy             -0.068046488016
  CCSD correlation energy              -0.212103243872

  Triples (T) contribution             -0.003105311904
  Total correlation energy             -0.215208555777

  CCSD total energy                   -76.238141388309
  CCSD[T] energy                      -76.241335495747
  CCSD-T energy                       -76.241189742261
 !CCSD(T) total energy                -76.241246700214

 Timing summary (sec):

 STEP                 CPU(USER)    SYS     CPU(TOT)    WALL
 CCSD iterations         0.01      0.00      0.01      0.04

 Program statistics:

 Available memory in ccsd:               999999236
 Min. memory needed in ccsd:                 10413
 Max. memory used in ccsd:                   11148
 Max. memory used in cckext:                 44198 (12 integral passes)



 **********************************************************************************************************************************
 DATASETS  * FILE   NREC   LENGTH (MB)   RECORD NAMES
              1      20        2.75       500      610      700      900      950      970     1000      129      960     1100   
                                          VAR    BASINP    GEOM    SYMINP    ZMAT    AOBASIS   BASIS     P2S    ABASIS      S 
                                         1400     1410     1200     1210     1080     1600     1650     1700     2100     1380   
                                           T        V       H0       H01     AOSYM     SMH    MOLCAS    OPER      RHF     JKOP   

              2       4        0.31       700     1000     2100     5600   
                                         GEOM     BASIS     RHF     GINFO   

 PROGRAMS   *        TOTAL   CCSD(T)   CCSD(T)       RHF       INT
 CPU TIMES  *         3.37      0.02      0.03      0.02      0.48
 REAL TIME  *         4.53 SEC
 DISK USED  *        22.94 MB      
 SF USED    *         0.31 MB      
 GA USED    *         0.00 MB       (max)       0.00 MB       (current)
 **********************************************************************************************************************************
 Starting task   6   Incrementing displacement  3 by -1.   CPU=    1.63 sec, Elapsed=    1.91 sec


 Reading current basis input from record  610.1

 Recomputing integrals since geometry changed

1PROGRAM * SEWARD (Integral evaluation for generally contracted gaussian basis sets)     Author: Roland Lindh, 1990

 Geometry written to block  1 of record 700


 Point group  Cs  



 ATOMIC COORDINATES

 NR  ATOM    CHARGE       X              Y              Z

   1  O       8.00    0.000000000   -0.007457438   -0.128823029
   2  H       1.00    0.000000000   -1.413204348    1.019971957
   3  H       1.00    0.000000000    1.421630214    1.025137340

 Bond lengths in Bohr (Angstrom)

 1-2  1.815448787  1-3  1.836822270
     ( 0.960694122)     ( 0.972004482)

 Bond angles

  2-1-3  101.82365390

 NUCLEAR CHARGE:                   10
 NUMBER OF PRIMITIVE AOS:          41
 NUMBER OF SYMMETRY AOS:           40
 NUMBER OF CONTRACTIONS:           24   (  18A'  +   6A"  )
 NUMBER OF CORE ORBITALS:           1   (   1A'  +   0A"  )
 NUMBER OF VALENCE ORBITALS:        6   (   5A'  +   1A"  )


 NUCLEAR REPULSION ENERGY    9.11472547


 Eigenvalues of metric

         1 0.176E-01 0.461E-01 0.519E-01 0.988E-01 0.160E+00 0.172E+00 0.224E+00 0.526E+00
         2 0.183E+00 0.528E+00 0.629E+00 0.111E+01 0.132E+01 0.224E+01


 Contracted 2-electron integrals neglected if value below      1.0D-16
 AO integral compression algorithm  1   Integral accuracy      1.0D-16

     0.786 MB (compressed) written to integral file (100.0%)

     Node minimum: 0.262 MB, node maximum: 0.262 MB


 NUMBER OF SORTED TWO-ELECTRON INTEGRALS:       8634.     BUFFER LENGTH:  32768
 NUMBER OF SEGMENTS:   1  SEGMENT LENGTH:       8634      RECORD LENGTH: 524288

 Memory used in sort:       0.57 MW

[...]

 Norm of t1 vector:      0.02424905      S-energy:     0.00000000      T1 diagnostic:  0.00606226
                                                                       D1 diagnostic:  0.01143612

 Doubles amplitudes (print threshold =  0.500E-01):

         I         J         SYM. A    SYM. B    A         B      T(IJ, AB)

         4         4         2         2         1         1     -0.05142311

 Total CPU time for triples:      0.00 sec


 RESULTS
 =======

  Reference energy                    -76.026050896201
  CCSD singlet pair energy             -0.144046606559
  CCSD triplet pair energy             -0.068043186348
  CCSD correlation energy              -0.212089792902

  Triples (T) contribution             -0.003104023518
  Total correlation energy             -0.215193816420

  CCSD total energy                   -76.238140689103
  CCSD[T] energy                      -76.241333442447
  CCSD-T energy                       -76.241187797173
 !CCSD(T) total energy                -76.241244712621

 Timing summary (sec):

 STEP                 CPU(USER)    SYS     CPU(TOT)    WALL
 CCSD iterations         0.01      0.01      0.02      0.03

 Program statistics:

 Available memory in ccsd:               999999236
 Min. memory needed in ccsd:                 10413
 Max. memory used in ccsd:                   11148
 Max. memory used in cckext:                 44198 (12 integral passes)



 **********************************************************************************************************************************
 DATASETS  * FILE   NREC   LENGTH (MB)   RECORD NAMES
              1      20        2.75       500      610      700      900      950      970     1000      129      960     1100   
                                          VAR    BASINP    GEOM    SYMINP    ZMAT    AOBASIS   BASIS     P2S    ABASIS      S 
                                         1400     1410     1200     1210     1080     1600     1650     1700     2100     1380   
                                           T        V       H0       H01     AOSYM     SMH    MOLCAS    OPER      RHF     JKOP   

              2       4        0.31       700     1000     2100     5600   
                                         GEOM     BASIS     RHF     GINFO   

 PROGRAMS   *        TOTAL   CCSD(T)   CCSD(T)       RHF       INT
 CPU TIMES  *        19.50      0.03      0.03      0.02      0.48
 REAL TIME  *        23.26 SEC
 DISK USED  *        22.94 MB      
 SF USED    *         0.31 MB      
 GA USED    *         0.00 MB       (max)       0.00 MB       (current)
 **********************************************************************************************************************************
 Numerical gradient completed. CPU-time:     1.96 sec, Elapsed:     2.31 sec

 Numerical gradient for CCSD(T)

 Total Energy           -76.24130503  Dipole moments:    0.000000    0.000000    0.000000

 Atom          dE/dx               dE/dy               dE/dz                  d2E/dx2             d2E/dy2             d2E/dz2
   1         0.000000000         0.000000025         0.000000007            0.000000000         0.000000000         0.000000000
   2         0.000000000        -0.000000005         0.000000007            0.000000000         0.000000000         0.000000000
   3        -0.000000000        -0.000000019        -0.000000013            0.000000000         0.000000000         0.000000000
 Reading points  1 to  6 from record 700.2,  wavefunction type=CCSD(T)         

 Making model hessian for cartesian coordinates
 BFGS update of hessian using  5 points

 Quadratic Steepest Descent - Minimum Search

 In QSD: Minimum
   1-  3   -1.312911   -1.783560   -0.000001

 Optimization point  6

 Variable                      Last           Current        Next           Gradient       Hessian
 E(CCSD(T)) / Hartree      -76.24130503   -76.24130503     0.00000000
 GX1 / ANGSTROM              0.00000000     0.00000000     0.00000000     0.00000000    -0.00000000
 GY1 / ANGSTROM              0.00003543     0.00003537     0.00003536     0.00000005    -0.00000000
 GZ1 / ANGSTROM             -0.06777358    -0.06777363    -0.06777363     0.00000001     0.00000000
 GX2 / ANGSTROM              0.00000000     0.00000000     0.00000000     0.00000000     0.00000000
 GY2 / ANGSTROM             -0.75025769    -0.75025761    -0.75025761    -0.00000001     0.00000000
 GZ2 / ANGSTROM              0.54116487     0.54116487     0.54116487     0.00000001     0.00000000
 GX3 / ANGSTROM              0.00000000     0.00000000     0.00000000     0.00000000     0.78562780
 GY3 / ANGSTROM              0.75073473     0.75073471     0.75073473    -0.00000004     4.73402719
 GZ3 / ANGSTROM              0.54066373     0.54066378     0.54066378    -0.00000003     5.42242172
 Convergence:                0.00000000  (line search)     0.00000003     0.00000004  (total)

 Geometry written to block  7 of record 700


 Reading current basis input from record  610.1

 Recomputing integrals since geometry changed

1PROGRAM * SEWARD (Integral evaluation for generally contracted gaussian basis sets)     Author: Roland Lindh, 1990

 Geometry written to block  7 of record 700


 Point group  Cs  



 ATOMIC COORDINATES

 NR  ATOM    CHARGE       X              Y              Z

   1  O       8.00    0.000000000    0.000066814   -0.128073604
   2  H       1.00    0.000000000   -1.417781419    1.022653391
   3  H       1.00    0.000000000    1.418683033    1.021706482

 Bond lengths in Bohr (Angstrom)

 1-2  1.826052088  1-3  1.826052087
     ( 0.966305148)     ( 0.966305147)

 Bond angles

  2-1-3  101.91261951

 NUCLEAR CHARGE:                   10
 NUMBER OF PRIMITIVE AOS:          41
 NUMBER OF SYMMETRY AOS:           40
 NUMBER OF CONTRACTIONS:           24   (  18A'  +   6A"  )
 NUMBER OF CORE ORBITALS:           1   (   1A'  +   0A"  )
 NUMBER OF VALENCE ORBITALS:        6   (   5A'  +   1A"  )


 NUCLEAR REPULSION ENERGY    9.11462363


 Eigenvalues of metric

         1 0.176E-01 0.462E-01 0.518E-01 0.988E-01 0.160E+00 0.172E+00 0.224E+00 0.526E+00
         2 0.183E+00 0.528E+00 0.629E+00 0.111E+01 0.132E+01 0.224E+01


 Contracted 2-electron integrals neglected if value below      1.0D-16
 AO integral compression algorithm  1   Integral accuracy      1.0D-16

     0.786 MB (compressed) written to integral file (100.0%)

     Node minimum: 0.262 MB, node maximum: 0.262 MB


 NUMBER OF SORTED TWO-ELECTRON INTEGRALS:       8634.     BUFFER LENGTH:  32768
 NUMBER OF SEGMENTS:   1  SEGMENT LENGTH:       8634      RECORD LENGTH: 524288

 Memory used in sort:       0.57 MW

 SORT1 READ       31790. AND WROTE        7845. INTEGRALS IN      1 RECORDS. CPU TIME:     0.01 SEC, REAL TIME:     0.00 SEC
 SORT2 READ       23239. AND WROTE       25710. INTEGRALS IN      3 RECORDS. CPU TIME:     0.00 SEC, REAL TIME:     0.00 SEC

 Node minimum:        8506.  Node maximum:        8634. integrals

 OPERATOR DM      FOR CENTER  0  COORDINATES:    0.000000    0.000000    0.000000
1PROGRAM * RHF-SCF (CLOSED SHELL)       Authors: W. Meyer, H.-J. Werner


 NUMBER OF ELECTRONS:       5+    5-
 CONVERGENCE THRESHOLDS:    1.00E-10 (Density)    1.00E-11 (Energy)
 MAX. NUMBER OF ITERATIONS:       60
 INTERPOLATION TYPE:            DIIS
 INTERPOLATION STEPS:              2 (START)      1 (STEP)
 LEVEL SHIFTS:                  0.00 (CLOSED)  0.00 (OPEN) 

 Number of closed-shell orbitals:    5 (   4   1 )


 Molecular orbitals read from record     2100.2  Type=RHF/CANONICAL (state 1.1)

 Molecular orbital dump at record        2100.2

 ITERATION    DDIFF          GRAD             ENERGY        2-EL.EN.            DIPOLE MOMENTS         DIIS
    1      0.000D+00      0.000D+00       -76.02611155     75.718017    0.00000    0.00028    0.82781    0
    2      0.000D+00      0.189D-08       -76.02611155     75.718017    0.00000    0.00028    0.82781    1
    3      0.517D-08      0.427D-09       -76.02611155     75.718017    0.00000    0.00028    0.82781    2
    4      0.909D-09      0.135D-09       -76.02611155     75.718017    0.00000    0.00028    0.82781    3
    5      0.254D-09      0.516D-10       -76.02611155     75.718017    0.00000    0.00028    0.82781    4
    6      0.828D-10      0.121D-10       -76.02611155     75.718017    0.00000    0.00028    0.82781    0

 Final occupancy:   4   1

 !RHF STATE 1.1 Energy                -76.026111554157
 Nuclear energy                         9.11462363
 One-electron energy                 -122.99974368
 Two-electron energy                   37.85900850
 Virial quotient                       -1.00089384
 !RHF STATE 1.1 Dipole moment           0.00000000     0.00027635     0.82780877
 Dipole moment /Debye                   0.00000000     0.00070237     2.10394222

 Orbital energies:

         1.1          2.1          3.1          4.1          5.1          6.1
    -20.553443    -1.334205    -0.689528    -0.570228     0.183496     0.255179

         1.2          2.2          3.2
     -0.493459     1.199540     1.482642


 **********************************************************************************************************************************
 DATASETS  * FILE   NREC   LENGTH (MB)   RECORD NAMES
              1      18        2.59       500      610      700      900      950      970     1000      129      960     1100   
                                          VAR    BASINP    GEOM    SYMINP    ZMAT    AOBASIS   BASIS     P2S    ABASIS      S 
                                         1400     1410     1200     1210     1080     1600     1650     1700   
                                           T        V       H0       H01     AOSYM     SMH    MOLCAS    OPER   

              2       4        0.31       700     1000     2100     5600   
                                         GEOM     BASIS     RHF     GINFO   

 PROGRAMS   *        TOTAL       RHF   CCSD(T)       RHF       INT
 CPU TIMES  *        19.78      0.27      0.03      0.02      0.48
 REAL TIME  *        23.58 SEC
 DISK USED  *        22.94 MB      
 SF USED    *         0.31 MB      
 GA USED    *         0.00 MB       (max)       0.00 MB       (current)
 **********************************************************************************************************************************


 Reading current basis input from record  610.1

1PROGRAM * CCSD (Closed-shell coupled cluster)     Authors: C. Hampel, H.-J. Werner, 1991, M. Deegan, P.J. Knowles, 1992


 Convergence thresholds:  THRVAR = 1.00D-14  THRDEN = 1.00D-10

 CCSD(T)     terms to be evaluated (factor= 1.000)


 Number of core orbitals:           1 (   1   0 )
 Number of closed-shell orbitals:   4 (   3   1 )
 Number of external orbitals:      19 (  14   5 )

 Molecular orbitals read from record     2100.2  Type=RHF/CANONICAL (state 1.1)

 Number of N-1 electron functions:               4
 Number of N-2 electron functions:              10
 Number of singly external CSFs:                47
 Number of doubly external CSFs:              1563
 Total number of CSFs:                        1611

 Length of J-op  integral file:               0.00 MB
 Length of K-op  integral file:               0.03 MB
 Length of 3-ext integral record:             0.00 MB

 Memory could be reduced to 0.31 Mwords without degradation in triples

 Integral transformation finished. Total CPU:   0.00 sec, npass=  1  Memory used:   0.09 MW

 Reference energy:                    -76.02611155

 MP2 singlet pair energy:              -0.12620456
 MP2 triplet pair energy:              -0.07634647
 MP2 correlation energy:               -0.20255103
 MP2 total energy:                    -76.22866258

 SCS-MP2 correlation energy:           -0.19894994   (PS=  1.200000  PT=  0.333333)
 SCS-MP2 total energy:                -76.22506150

 ITER.      SQ.NORM     CORR.ENERGY   TOTAL ENERGY   ENERGY CHANGE        DEN1      VAR(S)    VAR(P)  DIIS     TIME
   1      1.05339667    -0.21106303   -76.23717458    -0.00851200    -0.00487131  0.29D-03  0.69D-03  1  1     0.01
   2      1.05663671    -0.21201140   -76.23812296    -0.00094837    -0.00393864  0.54D-05  0.60D-04  2  2     0.01
   3      1.05745373    -0.21208821   -76.23819976    -0.00007681    -0.00061192  0.21D-05  0.24D-05  3  3     0.01
   4      1.05764014    -0.21209126   -76.23820281    -0.00000305    -0.00010076  0.13D-06  0.14D-06  4  4     0.01
   5      1.05767499    -0.21208976   -76.23820131     0.00000150    -0.00001600  0.34D-07  0.78D-08  5  5     0.01
   6      1.05767983    -0.21208969   -76.23820124     0.00000007     0.00000037  0.43D-08  0.84D-09  6  6     0.01
   7      1.05768256    -0.21208963   -76.23820119     0.00000006    -0.00000027  0.16D-09  0.70D-10  6  1     0.01
   8      1.05768293    -0.21208958   -76.23820114     0.00000005     0.00000007  0.43D-11  0.50D-11  6  2     0.02
   9      1.05768304    -0.21208957   -76.23820113     0.00000001    -0.00000006  0.10D-12  0.31D-12  6  3     0.02
  10      1.05768307    -0.21208957   -76.23820112     0.00000000    -0.00000002  0.21D-14  0.89D-14  6  4     0.02
  11      1.05768307    -0.21208957   -76.23820112     0.00000000    -0.00000000  0.18D-15  0.34D-15  6  6     0.02
  12      1.05768307    -0.21208957   -76.23820112     0.00000000    -0.00000000  0.28D-17  0.13D-16  6  5     0.02

 Norm of t1 vector:      0.02424546      S-energy:     0.00000000      T1 diagnostic:  0.00606136
                                                                       D1 diagnostic:  0.01141312

 Doubles amplitudes (print threshold =  0.500E-01):

         I         J         SYM. A    SYM. B    A         B      T(IJ, AB)

         4         4         2         2         1         1     -0.05142886

 Total CPU time for triples:      0.00 sec


 RESULTS
 =======

  Reference energy                    -76.026111554157
  CCSD singlet pair energy             -0.144045622651
  CCSD triplet pair energy             -0.068043947212
  CCSD correlation energy              -0.212089569857

  Triples (T) contribution             -0.003103902960
  Total correlation energy             -0.215193472818

  CCSD total energy                   -76.238201124014
  CCSD[T] energy                      -76.241393740650
  CCSD-T energy                       -76.241248121749
 !CCSD(T) total energy                -76.241305026974

 Timing summary (sec):

 STEP                 CPU(USER)    SYS     CPU(TOT)    WALL
 CCSD iterations         0.02      0.00      0.02      0.04

 Program statistics:

 Available memory in ccsd:               999999377
 Min. memory needed in ccsd:                 10413
 Max. memory used in ccsd:                   11148
 Max. memory used in cckext:                 44198 (12 integral passes)



 **********************************************************************************************************************************
 DATASETS  * FILE   NREC   LENGTH (MB)   RECORD NAMES
              1      19        2.70       500      610      700      900      950      970     1000      129      960     1100   
                                          VAR    BASINP    GEOM    SYMINP    ZMAT    AOBASIS   BASIS     P2S    ABASIS      S 
                                         1400     1410     1200     1210     1080     1600     1650     1700     1380   
                                           T        V       H0       H01     AOSYM     SMH    MOLCAS    OPER     JKOP   

              2       4        0.31       700     1000     2100     5600   
                                         GEOM     BASIS     RHF     GINFO   

 PROGRAMS   *        TOTAL   CCSD(T)   CCSD(T)       RHF       INT
 CPU TIMES  *        19.81      0.03      0.03      0.02      0.48
 REAL TIME  *        23.64 SEC
 DISK USED  *        22.94 MB      
 SF USED    *         0.31 MB      
 GA USED    *         0.00 MB       (max)       0.00 MB       (current)
 **********************************************************************************************************************************

 PROGRESS OF GEOMETRY OPTIMIZATION.    TOTAL CPU:        19.2 SEC

 ITER.   ENERGY(OLD)    ENERGY(NEW)      DE          GRADMAX     GRADNORM    GRADRMS     STEPMAX     STEPLEN     STEPRMS
   1   -76.24130481   -76.24130500    -0.00000020  0.00023993  0.00036804  0.00012268  0.00109174  0.00110905  0.00064031
   2   -76.24130500   -76.24130503    -0.00000002  0.00011557  0.00013529  0.00004510  0.00036206  0.00038389  0.00022164
   3   -76.24130503   -76.24130503    -0.00000000  0.00002382  0.00002494  0.00000831  0.00002122  0.00002158  0.00001246
   4   -76.24130503   -76.24130503    -0.00000000  0.00000407  0.00000505  0.00000168  0.00000434  0.00000635  0.00000367
   5   -76.24130503   -76.24130503    -0.00000000  0.00000024  0.00000025  0.00000008  0.00000017  0.00000024  0.00000014
   6   -76.24130503   -76.24130503     0.00000000  0.00000003  0.00000004  0.00000001  0.00000003  0.00000003  0.00000002

 **********************************************************************************************************************************

 Current geometry (xyz format, in Angstrom)

    3
 CCSD(T)/   ENERGY=-76.24130503
 O          0.0000000000        0.0000353564       -0.0677736326
 H          0.0000000000       -0.7502576142        0.5411648672
 H          0.0000000000        0.7507347277        0.5406637845

 **********************************************************************************************************************************

 END OF GEOMETRY OPTIMIZATION.    TOTAL CPU:        19.2 SEC

 ITER.   ENERGY(OLD)    ENERGY(NEW)      DE          GRADMAX     GRADNORM    GRADRMS     STEPMAX     STEPLEN     STEPRMS
   1   -76.24130481   -76.24130500    -0.00000020  0.00023993  0.00036804  0.00012268  0.00109174  0.00110905  0.00064031
   2   -76.24130500   -76.24130503    -0.00000002  0.00011557  0.00013529  0.00004510  0.00036206  0.00038389  0.00022164
   3   -76.24130503   -76.24130503    -0.00000000  0.00002382  0.00002494  0.00000831  0.00002122  0.00002158  0.00001246
   4   -76.24130503   -76.24130503    -0.00000000  0.00000407  0.00000505  0.00000168  0.00000434  0.00000635  0.00000367
   5   -76.24130503   -76.24130503    -0.00000000  0.00000024  0.00000025  0.00000008  0.00000017  0.00000024  0.00000014
   6   -76.24130503   -76.24130503     0.00000000  0.00000003  0.00000004  0.00000001  0.00000003  0.00000003  0.00000002

 Geometry written to block  1 of record 700


 **********************************************************************************************************************************
 DATASETS  * FILE   NREC   LENGTH (MB)   RECORD NAMES
              1      19        2.70       500      610      700      900      950      970     1000      129      960     1100   
                                          VAR    BASINP    GEOM    SYMINP    ZMAT    AOBASIS   BASIS     P2S    ABASIS      S 
                                         1400     1410     1200     1210     1080     1600     1650     1700     1380   
                                           T        V       H0       H01     AOSYM     SMH    MOLCAS    OPER     JKOP   

              2       4        0.31       700     1000     2100     5600   
                                         GEOM     BASIS     RHF     GINFO   

 PROGRAMS   *        TOTAL      OPTG   CCSD(T)       RHF       INT
 CPU TIMES  *        19.81     19.18      0.03      0.02      0.48
 REAL TIME  *        23.65 SEC
 DISK USED  *        22.94 MB      
 SF USED    *         0.31 MB      
 GA USED    *         0.00 MB       (max)       0.00 MB       (current)
 **********************************************************************************************************************************

   OPTG(CCSD(T))        CCSD(T)         RHF-SCF 
    -76.24130503    -76.24130481    -76.02609752
 **********************************************************************************************************************************
 Variable memory released
