
    -----------------------------------------------------------------------
          Psi4: An Open-Source Ab Initio Electronic Structure Package
                               Psi4 1.2.1 release

                         Git: Rev {HEAD} 406f4de 


    R. M. Parrish, L. A. Burns, D. G. A. Smith, A. C. Simmonett,
    A. E. DePrince III, E. G. Hohenstein, U. Bozkaya, A. Yu. Sokolov,
    R. Di Remigio, R. M. Richard, J. F. Gonthier, A. M. James,
    H. R. McAlexander, A. Kumar, M. Saitow, X. Wang, B. P. Pritchard,
    P. Verma, H. F. Schaefer III, K. Patkowski, R. A. King, E. F. Valeev,
    F. A. Evangelista, J. M. Turney, T. D. Crawford, and C. D. Sherrill,
    J. Chem. Theory Comput. 13(7) pp 3185--3197 (2017).
    (doi: 10.1021/acs.jctc.7b00174)


                         Additional Contributions by
    P. Kraus, H. Kruse, M. H. Lechner, M. C. Schieber, and R. A. Shaw

    -----------------------------------------------------------------------


    Psi4 started on: Tuesday, 15 January 2019 03:15PM

    Process ID: 1292
    Host:       adabbott
    PSIDATADIR: /home/adabbott/anaconda3/envs/mlchem/share/psi4
    Memory:     500.0 MiB
    Threads:    1
    
  ==> Input File <==

--------------------------------------------------------------------------
# density fitted hartree fock 
molecule h2o {
0 1
H 0.0000000000 0.0000000000 1.1125000000
H 0.0000000000 0.9055554621 -0.2426428548
O 0.0000000000 0.0000000000 0.0000000000
}

set basis 6-31g
energy('hf')

--------------------------------------------------------------------------

*** tstart() called on adabbott
*** at Tue Jan 15 15:15:34 2019

   => Loading Basis Set <=

    Name: 6-31G
    Role: ORBITAL
    Keyword: BASIS
    atoms 1-2 entry H          line    26 file /home/adabbott/anaconda3/envs/mlchem/share/psi4/basis/6-31g.gbs 
    atoms 3   entry O          line   117 file /home/adabbott/anaconda3/envs/mlchem/share/psi4/basis/6-31g.gbs 


         ---------------------------------------------------------
                                   SCF
            by Justin Turney, Rob Parrish, Andy Simmonett
                             and Daniel Smith
                              RHF Reference
                        1 Threads,    500 MiB Core
         ---------------------------------------------------------

  ==> Geometry <==

    Molecular point group: cs
    Full point group: Cs

    Geometry (in Angstrom), charge = 0, multiplicity = 1:

       Center              X                  Y                   Z               Mass       
    ------------   -----------------  -----------------  -----------------  -----------------
         H            0.050672562391    -1.063825023915     0.000000000000     1.007825032070
         H           -0.854882899709     0.291317830885     0.000000000000     1.007825032070
         O            0.050672562391     0.048674976085     0.000000000000    15.994914619560

  Running in cs symmetry.

  Rotational constants: A =     25.43950  B =     12.20196  C =      8.24654 [cm^-1]
  Rotational constants: A = 762656.95829  B = 365805.41326  C = 247224.94151 [MHz]
  Nuclear repulsion =    8.645641293745214

  Charge       = 0
  Multiplicity = 1
  Electrons    = 10
  Nalpha       = 5
  Nbeta        = 5

  ==> Algorithm <==

  SCF Algorithm Type is DF.
  DIIS enabled.
  MOM disabled.
  Fractional occupation disabled.
  Guess Type is SAD.
  Energy threshold   = 1.00e-06
  Density threshold  = 1.00e-06
  Integral threshold = 0.00e+00

  ==> Primary Basis <==

  Basis Set: 6-31G
    Blend: 6-31G
    Number of shells: 9
    Number of basis function: 13
    Number of Cartesian functions: 13
    Spherical Harmonics?: false
    Max angular momentum: 1

   => Loading Basis Set <=

    Name: (6-31G AUX)
    Role: JKFIT
    Keyword: DF_BASIS_SCF
    atoms 1-2 entry H          line    51 file /home/adabbott/anaconda3/envs/mlchem/share/psi4/basis/cc-pvdz-jkfit.gbs 
    atoms 3   entry O          line   221 file /home/adabbott/anaconda3/envs/mlchem/share/psi4/basis/cc-pvdz-jkfit.gbs 

  ==> Pre-Iterations <==

   -------------------------------------------------------
    Irrep   Nso     Nmo     Nalpha   Nbeta   Ndocc  Nsocc
   -------------------------------------------------------
     A'        11      11       0       0       0       0
     A"         2       2       0       0       0       0
   -------------------------------------------------------
    Total      13      13       5       5       5       0
   -------------------------------------------------------

  ==> Integral Setup <==

  ==> DiskDFJK: Density-Fitted J/K Matrices <==

    J tasked:                  Yes
    K tasked:                  Yes
    wK tasked:                  No
    OpenMP threads:              1
    Integrals threads:           1
    Memory (MB):               375
    Algorithm:                Core
    Integral Cache:           NONE
    Schwarz Cutoff:          1E-12
    Fitting Condition:       1E-12

   => Auxiliary Basis Set <=

  Basis Set: (6-31G AUX)
    Blend: CC-PVDZ-JKFIT
    Number of shells: 42
    Number of basis function: 131
    Number of Cartesian functions: 131
    Spherical Harmonics?: false
    Max angular momentum: 3

  Minimum eigenvalue in the overlap matrix is 7.3565563753E-02.
  Using Symmetric Orthogonalization.

  SCF Guess: Superposition of Atomic Densities via on-the-fly atomic UHF.

  ==> Iterations <==

                           Total Energy        Delta E     RMS |[F,P]|

   @DF-RHF iter   0:   -75.94074800729499   -7.59407e+01   1.33611e-01 
   @DF-RHF iter   1:   -75.92292869705625    1.78193e-02   2.54217e-02 
   @DF-RHF iter   2:   -75.95598878130951   -3.30601e-02   1.39330e-02 DIIS
   @DF-RHF iter   3:   -75.96487692333939   -8.88814e-03   2.27337e-03 DIIS
   @DF-RHF iter   4:   -75.96544158394819   -5.64661e-04   4.77564e-04 DIIS
   @DF-RHF iter   5:   -75.96547313762264   -3.15537e-05   4.39703e-05 DIIS
   @DF-RHF iter   6:   -75.96547349780197   -3.60179e-07   1.04602e-05 DIIS
   @DF-RHF iter   7:   -75.96547352105205   -2.32501e-08   2.07510e-06 DIIS
   @DF-RHF iter   8:   -75.96547352190123   -8.49184e-10   3.85999e-07 DIIS

  ==> Post-Iterations <==

    Orbital Energies [Eh]
    ---------------------

    Doubly Occupied:                                                      

       1Ap   -20.572493     2Ap    -1.329677     3Ap    -0.677467  
       4Ap    -0.547179     1App   -0.498597  

    Virtual:                                                              

       5Ap     0.179363     6Ap     0.284087     7Ap     0.999633  
       8Ap     1.150863     2App    1.164557     9Ap     1.220857  
      10Ap     1.377899    11Ap     1.687212  

    Final Occupation by Irrep:
             Ap   App 
    DOCC [     4,    1 ]

  Energy converged.

  @DF-RHF Final Energy:   -75.96547352190123

   => Energetics <=

    Nuclear Repulsion Energy =              8.6456412937452143
    One-Electron Energy =                -121.9713964966877171
    Two-Electron Energy =                  37.3602816810412719
    Total Energy =                        -75.9654735219012309



Properties will be evaluated at   0.000000,   0.000000,   0.000000 [a0]

Properties computed using the SCF density matrix

  Nuclear Dipole Moment: [e a0]
     X:    -0.7537      Y:    -0.7240      Z:     0.0000

  Electronic Dipole Moment: [e a0]
     X:    -0.0554      Y:     0.0747      Z:     0.0000

  Dipole Moment: [e a0]
     X:    -0.8091      Y:    -0.6493      Z:     0.0000     Total:     1.0374

  Dipole Moment: [D]
     X:    -2.0566      Y:    -1.6504      Z:     0.0000     Total:     2.6369


*** tstop() called on adabbott at Tue Jan 15 15:15:34 2019
Module time:
	user time   =       0.19 seconds =       0.00 minutes
	system time =       0.00 seconds =       0.00 minutes
	total time  =          0 seconds =       0.00 minutes
Total time:
	user time   =       0.19 seconds =       0.00 minutes
	system time =       0.00 seconds =       0.00 minutes
	total time  =          0 seconds =       0.00 minutes

    Psi4 stopped on: Tuesday, 15 January 2019 03:15PM
    Psi4 wall time for execution: 0:00:00.20

*** Psi4 exiting successfully. Buy a developer a beer!
