
    -----------------------------------------------------------------------
          Psi4: An Open-Source Ab Initio Electronic Structure Package
                               Psi4 1.3.1 release

                         Git: Rev {HEAD} 2ce1c29 


    R. M. Parrish, L. A. Burns, D. G. A. Smith, A. C. Simmonett,
    A. E. DePrince III, E. G. Hohenstein, U. Bozkaya, A. Yu. Sokolov,
    R. Di Remigio, R. M. Richard, J. F. Gonthier, A. M. James,
    H. R. McAlexander, A. Kumar, M. Saitow, X. Wang, B. P. Pritchard,
    P. Verma, H. F. Schaefer III, K. Patkowski, R. A. King, E. F. Valeev,
    F. A. Evangelista, J. M. Turney, T. D. Crawford, and C. D. Sherrill,
    J. Chem. Theory Comput. 13(7) pp 3185--3197 (2017).
    (doi: 10.1021/acs.jctc.7b00174)


                         Additional Contributions by
    P. Kraus, H. Kruse, M. H. Lechner, M. C. Schieber, R. A. Shaw,
    A. Alenaizan, R. Galvelis, Z. L. Glick, S. Lehtola, and J. P. Misiewicz

    -----------------------------------------------------------------------


    Psi4 started on: Monday, 08 July 2019 02:48PM

    Process ID: 7279
    Host:       adabbott
    PSIDATADIR: /home/adabbott/anaconda3/envs/peslearn/share/psi4
    Memory:     500.0 MiB
    Threads:    1
    
  ==> Input File <==

--------------------------------------------------------------------------
# density fitted hartree fock 
molecule h2o {
0 1
H 0.0000000000 0.0000000000 1.0000000000
H 0.0000000000 0.9393892849 -0.1415901529
O 0.0000000000 0.0000000000 0.0000000000
}

set basis 6-31g
energy('hf')

--------------------------------------------------------------------------

*** tstart() called on adabbott
*** at Mon Jul  8 14:48:02 2019

   => Loading Basis Set <=

    Name: 6-31G
    Role: ORBITAL
    Keyword: BASIS
    atoms 1-2 entry H          line    26 file /home/adabbott/anaconda3/envs/peslearn/share/psi4/basis/6-31g.gbs 
    atoms 3   entry O          line   117 file /home/adabbott/anaconda3/envs/peslearn/share/psi4/basis/6-31g.gbs 


         ---------------------------------------------------------
                                   SCF
               by Justin Turney, Rob Parrish, Andy Simmonett
                          and Daniel G. A. Smith
                              RHF Reference
                        1 Threads,    500 MiB Core
         ---------------------------------------------------------

  ==> Geometry <==

    Molecular point group: cs
    Full point group: Cs

    Geometry (in Angstrom), charge = 0, multiplicity = 1:

       Center              X                  Y                   Z               Mass       
    ------------   -----------------  -----------------  -----------------  -----------------
         H            0.052565816394    -0.951965585366     0.000000000000     1.007825032230
         H           -0.886823468506     0.189624567534     0.000000000000     1.007825032230
         O            0.052565816394     0.048034414634     0.000000000000    15.994914619570

  Running in cs symmetry.

  Rotational constants: A =     23.44378  B =     15.22823  C =      9.23167 [cm^-1]
  Rotational constants: A = 702826.72174  B = 456530.76598  C = 276758.48479 [MHz]
  Nuclear repulsion =    9.047584832935005

  Charge       = 0
  Multiplicity = 1
  Electrons    = 10
  Nalpha       = 5
  Nbeta        = 5

  ==> Algorithm <==

  SCF Algorithm Type is DF.
  DIIS enabled.
  MOM disabled.
  Fractional occupation disabled.
  Guess Type is SAD.
  Energy threshold   = 1.00e-06
  Density threshold  = 1.00e-06
  Integral threshold = 0.00e+00

  ==> Primary Basis <==

  Basis Set: 6-31G
    Blend: 6-31G
    Number of shells: 9
    Number of basis function: 13
    Number of Cartesian functions: 13
    Spherical Harmonics?: false
    Max angular momentum: 1

   => Loading Basis Set <=

    Name: (6-31G AUX)
    Role: JKFIT
    Keyword: DF_BASIS_SCF
    atoms 1-2 entry H          line    51 file /home/adabbott/anaconda3/envs/peslearn/share/psi4/basis/cc-pvdz-jkfit.gbs 
    atoms 3   entry O          line   221 file /home/adabbott/anaconda3/envs/peslearn/share/psi4/basis/cc-pvdz-jkfit.gbs 

  ==> Pre-Iterations <==

   -------------------------------------------------------
    Irrep   Nso     Nmo     Nalpha   Nbeta   Ndocc  Nsocc
   -------------------------------------------------------
     A'        11      11       0       0       0       0
     A"         2       2       0       0       0       0
   -------------------------------------------------------
    Total      13      13       5       5       5       0
   -------------------------------------------------------

  ==> Integral Setup <==

  DFHelper Memory: AOs need 0.000 GiB; user supplied 0.366 GiB. Using in-core AOs.

  ==> MemDFJK: Density-Fitted J/K Matrices <==

    J tasked:                   Yes
    K tasked:                   Yes
    wK tasked:                   No
    OpenMP threads:               1
    Memory [MiB]:               375
    Algorithm:                 Core
    Schwarz Cutoff:           1E-12
    Mask sparsity (%):       0.0000
    Fitting Condition:        1E-10

   => Auxiliary Basis Set <=

  Basis Set: (6-31G AUX)
    Blend: CC-PVDZ-JKFIT
    Number of shells: 42
    Number of basis function: 131
    Number of Cartesian functions: 131
    Spherical Harmonics?: false
    Max angular momentum: 3

  Minimum eigenvalue in the overlap matrix is 6.8454011110E-02.
  Using Symmetric Orthogonalization.

  SCF Guess: Superposition of Atomic Densities via on-the-fly atomic UHF.

  ==> Iterations <==

                           Total Energy        Delta E     RMS |[F,P]|

   @DF-RHF iter SAD:   -75.50488028960842   -7.55049e+01   0.00000e+00 
   @DF-RHF iter   1:   -75.90181024334169   -3.96930e-01   3.64617e-02 DIIS
   @DF-RHF iter   2:   -75.95808753514402   -5.62773e-02   2.18258e-02 DIIS
   @DF-RHF iter   3:   -75.97861184438969   -2.05243e-02   1.76945e-03 DIIS
   @DF-RHF iter   4:   -75.97896297962944   -3.51135e-04   3.41454e-04 DIIS
   @DF-RHF iter   5:   -75.97897575600746   -1.27764e-05   4.48798e-05 DIIS
   @DF-RHF iter   6:   -75.97897604964392   -2.93636e-07   6.65906e-06 DIIS
   @DF-RHF iter   7:   -75.97897605586191   -6.21799e-09   1.29413e-06 DIIS
   @DF-RHF iter   8:   -75.97897605615080   -2.88892e-10   3.12337e-07 DIIS
  Energy and wave function converged.


  ==> Post-Iterations <==

    Orbital Energies [Eh]
    ---------------------

    Doubly Occupied:                                                      

       1Ap   -20.568245     2Ap    -1.354382     3Ap    -0.690075  
       4Ap    -0.569348     1App   -0.503462  

    Virtual:                                                              

       5Ap     0.197302     6Ap     0.293792     7Ap     1.018782  
       2App    1.162189     8Ap     1.183740     9Ap     1.231054  
      10Ap     1.370787    11Ap     1.716373  

    Final Occupation by Irrep:
             Ap   App 
    DOCC [     4,    1 ]

  @DF-RHF Final Energy:   -75.97897605615080

   => Energetics <=

    Nuclear Repulsion Energy =              9.0475848329350050
    One-Electron Energy =                -122.6820919849768643
    Two-Electron Energy =                  37.6555310958910709
    Total Energy =                        -75.9789760561507990

Computation Completed


Properties will be evaluated at   0.000000,   0.000000,   0.000000 [a0]

Properties computed using the SCF density matrix

  Nuclear Dipole Moment: [e a0]
     X:    -0.7818      Y:    -0.7144      Z:     0.0000

  Electronic Dipole Moment: [e a0]
     X:    -0.0304      Y:     0.0098      Z:     0.0000

  Dipole Moment: [e a0]
     X:    -0.8122      Y:    -0.7046      Z:     0.0000     Total:     1.0753

  Dipole Moment: [D]
     X:    -2.0645      Y:    -1.7909      Z:     0.0000     Total:     2.7330


*** tstop() called on adabbott at Mon Jul  8 14:48:04 2019
Module time:
	user time   =       0.37 seconds =       0.01 minutes
	system time =       0.00 seconds =       0.00 minutes
	total time  =          2 seconds =       0.03 minutes
Total time:
	user time   =       0.37 seconds =       0.01 minutes
	system time =       0.00 seconds =       0.00 minutes
	total time  =          2 seconds =       0.03 minutes

    Psi4 stopped on: Monday, 08 July 2019 02:48PM
    Psi4 wall time for execution: 0:00:01.21

*** Psi4 exiting successfully. Buy a developer a beer!
