
    -----------------------------------------------------------------------
          Psi4: An Open-Source Ab Initio Electronic Structure Package
                               Psi4 1.2.1 release

                         Git: Rev {HEAD} 406f4de 


    R. M. Parrish, L. A. Burns, D. G. A. Smith, A. C. Simmonett,
    A. E. DePrince III, E. G. Hohenstein, U. Bozkaya, A. Yu. Sokolov,
    R. Di Remigio, R. M. Richard, J. F. Gonthier, A. M. James,
    H. R. McAlexander, A. Kumar, M. Saitow, X. Wang, B. P. Pritchard,
    P. Verma, H. F. Schaefer III, K. Patkowski, R. A. King, E. F. Valeev,
    F. A. Evangelista, J. M. Turney, T. D. Crawford, and C. D. Sherrill,
    J. Chem. Theory Comput. 13(7) pp 3185--3197 (2017).
    (doi: 10.1021/acs.jctc.7b00174)


                         Additional Contributions by
    P. Kraus, H. Kruse, M. H. Lechner, M. C. Schieber, and R. A. Shaw

    -----------------------------------------------------------------------


    Psi4 started on: Tuesday, 15 January 2019 03:15PM

    Process ID: 1350
    Host:       adabbott
    PSIDATADIR: /home/adabbott/anaconda3/envs/mlchem/share/psi4
    Memory:     500.0 MiB
    Threads:    1
    
  ==> Input File <==

--------------------------------------------------------------------------
# density fitted hartree fock 
molecule h2o {
0 1
H 0.0000000000 0.0000000000 1.1125000000
H 0.0000000000 0.9294795575 -0.1223683052
O 0.0000000000 0.0000000000 0.0000000000
}

set basis 6-31g
energy('hf')

--------------------------------------------------------------------------

*** tstart() called on adabbott
*** at Tue Jan 15 15:15:35 2019

   => Loading Basis Set <=

    Name: 6-31G
    Role: ORBITAL
    Keyword: BASIS
    atoms 1-2 entry H          line    26 file /home/adabbott/anaconda3/envs/mlchem/share/psi4/basis/6-31g.gbs 
    atoms 3   entry O          line   117 file /home/adabbott/anaconda3/envs/mlchem/share/psi4/basis/6-31g.gbs 


         ---------------------------------------------------------
                                   SCF
            by Justin Turney, Rob Parrish, Andy Simmonett
                             and Daniel Smith
                              RHF Reference
                        1 Threads,    500 MiB Core
         ---------------------------------------------------------

  ==> Geometry <==

    Molecular point group: cs
    Full point group: Cs

    Geometry (in Angstrom), charge = 0, multiplicity = 1:

       Center              X                  Y                   Z               Mass       
    ------------   -----------------  -----------------  -----------------  -----------------
         H            0.052011293443    -1.057094768427     0.000000000000     1.007825032070
         H           -0.877468264057     0.177773536773     0.000000000000     1.007825032070
         O            0.052011293443     0.055405231573     0.000000000000    15.994914619560

  Running in cs symmetry.

  Rotational constants: A =     22.18237  B =     13.28252  C =      8.30787 [cm^-1]
  Rotational constants: A = 665010.67582  B = 398199.92276  C = 249063.73215 [MHz]
  Nuclear repulsion =    8.663344720017880

  Charge       = 0
  Multiplicity = 1
  Electrons    = 10
  Nalpha       = 5
  Nbeta        = 5

  ==> Algorithm <==

  SCF Algorithm Type is DF.
  DIIS enabled.
  MOM disabled.
  Fractional occupation disabled.
  Guess Type is SAD.
  Energy threshold   = 1.00e-06
  Density threshold  = 1.00e-06
  Integral threshold = 0.00e+00

  ==> Primary Basis <==

  Basis Set: 6-31G
    Blend: 6-31G
    Number of shells: 9
    Number of basis function: 13
    Number of Cartesian functions: 13
    Spherical Harmonics?: false
    Max angular momentum: 1

   => Loading Basis Set <=

    Name: (6-31G AUX)
    Role: JKFIT
    Keyword: DF_BASIS_SCF
    atoms 1-2 entry H          line    51 file /home/adabbott/anaconda3/envs/mlchem/share/psi4/basis/cc-pvdz-jkfit.gbs 
    atoms 3   entry O          line   221 file /home/adabbott/anaconda3/envs/mlchem/share/psi4/basis/cc-pvdz-jkfit.gbs 

  ==> Pre-Iterations <==

   -------------------------------------------------------
    Irrep   Nso     Nmo     Nalpha   Nbeta   Ndocc  Nsocc
   -------------------------------------------------------
     A'        11      11       0       0       0       0
     A"         2       2       0       0       0       0
   -------------------------------------------------------
    Total      13      13       5       5       5       0
   -------------------------------------------------------

  ==> Integral Setup <==

  ==> DiskDFJK: Density-Fitted J/K Matrices <==

    J tasked:                  Yes
    K tasked:                  Yes
    wK tasked:                  No
    OpenMP threads:              1
    Integrals threads:           1
    Memory (MB):               375
    Algorithm:                Core
    Integral Cache:           NONE
    Schwarz Cutoff:          1E-12
    Fitting Condition:       1E-12

   => Auxiliary Basis Set <=

  Basis Set: (6-31G AUX)
    Blend: CC-PVDZ-JKFIT
    Number of shells: 42
    Number of basis function: 131
    Number of Cartesian functions: 131
    Spherical Harmonics?: false
    Max angular momentum: 3

  Minimum eigenvalue in the overlap matrix is 7.2112742092E-02.
  Using Symmetric Orthogonalization.

  SCF Guess: Superposition of Atomic Densities via on-the-fly atomic UHF.

  ==> Iterations <==

                           Total Energy        Delta E     RMS |[F,P]|

   @DF-RHF iter   0:   -75.79866952843501   -7.57987e+01   1.32818e-01 
   @DF-RHF iter   1:   -75.94179117338669   -1.43122e-01   1.88894e-02 
   @DF-RHF iter   2:   -75.95734150158620   -1.55503e-02   1.05041e-02 DIIS
   @DF-RHF iter   3:   -75.96242233336791   -5.08083e-03   1.33122e-03 DIIS
   @DF-RHF iter   4:   -75.96259418679939   -1.71853e-04   2.80160e-04 DIIS
   @DF-RHF iter   5:   -75.96261004482687   -1.58580e-05   6.02573e-05 DIIS
   @DF-RHF iter   6:   -75.96261079640473   -7.51578e-07   1.07800e-05 DIIS
   @DF-RHF iter   7:   -75.96261081815945   -2.17547e-08   1.46950e-06 DIIS
   @DF-RHF iter   8:   -75.96261081855060   -3.91154e-10   1.72996e-07 DIIS

  ==> Post-Iterations <==

    Orbital Energies [Eh]
    ---------------------

    Doubly Occupied:                                                      

       1Ap   -20.578447     2Ap    -1.337440     3Ap    -0.666808  
       4Ap    -0.560603     1App   -0.502732  

    Virtual:                                                              

       5Ap     0.178011     6Ap     0.281539     7Ap     0.979134  
       2App    1.161342     8Ap     1.161451     9Ap     1.229423  
      10Ap     1.370285    11Ap     1.713232  

    Final Occupation by Irrep:
             Ap   App 
    DOCC [     4,    1 ]

  Energy converged.

  @DF-RHF Final Energy:   -75.96261081855060

   => Energetics <=

    Nuclear Repulsion Energy =              8.6633447200178804
    One-Electron Energy =                -121.9598503148263973
    Two-Electron Energy =                  37.3338947762579068
    Total Energy =                        -75.9626108185506155



Properties will be evaluated at   0.000000,   0.000000,   0.000000 [a0]

Properties computed using the SCF density matrix

  Nuclear Dipole Moment: [e a0]
     X:    -0.7736      Y:    -0.8241      Z:     0.0000

  Electronic Dipole Moment: [e a0]
     X:    -0.0374      Y:     0.1049      Z:     0.0000

  Dipole Moment: [e a0]
     X:    -0.8110      Y:    -0.7192      Z:     0.0000     Total:     1.0840

  Dipole Moment: [D]
     X:    -2.0614      Y:    -1.8279      Z:     0.0000     Total:     2.7552


*** tstop() called on adabbott at Tue Jan 15 15:15:35 2019
Module time:
	user time   =       0.19 seconds =       0.00 minutes
	system time =       0.01 seconds =       0.00 minutes
	total time  =          0 seconds =       0.00 minutes
Total time:
	user time   =       0.19 seconds =       0.00 minutes
	system time =       0.01 seconds =       0.00 minutes
	total time  =          0 seconds =       0.00 minutes

    Psi4 stopped on: Tuesday, 15 January 2019 03:15PM
    Psi4 wall time for execution: 0:00:00.20

*** Psi4 exiting successfully. Buy a developer a beer!
