
    -----------------------------------------------------------------------
          Psi4: An Open-Source Ab Initio Electronic Structure Package
                               Psi4 1.3.1 release

                         Git: Rev {HEAD} 2ce1c29 


    R. M. Parrish, L. A. Burns, D. G. A. Smith, A. C. Simmonett,
    A. E. DePrince III, E. G. Hohenstein, U. Bozkaya, A. Yu. Sokolov,
    R. Di Remigio, R. M. Richard, J. F. Gonthier, A. M. James,
    H. R. McAlexander, A. Kumar, M. Saitow, X. Wang, B. P. Pritchard,
    P. Verma, H. F. Schaefer III, K. Patkowski, R. A. King, E. F. Valeev,
    F. A. Evangelista, J. M. Turney, T. D. Crawford, and C. D. Sherrill,
    J. Chem. Theory Comput. 13(7) pp 3185--3197 (2017).
    (doi: 10.1021/acs.jctc.7b00174)


                         Additional Contributions by
    P. Kraus, H. Kruse, M. H. Lechner, M. C. Schieber, R. A. Shaw,
    A. Alenaizan, R. Galvelis, Z. L. Glick, S. Lehtola, and J. P. Misiewicz

    -----------------------------------------------------------------------


    Psi4 started on: Monday, 15 April 2019 12:53PM

    Process ID: 19567
    Host:       adabbott
    PSIDATADIR: /home/adabbott/anaconda3/envs/trial4/share/psi4
    Memory:     500.0 MiB
    Threads:    1
    
  ==> Input File <==

--------------------------------------------------------------------------
# density fitted hartree fock 
molecule h2o {
0 1
H 0.0000000000 0.0000000000 1.1125000000
H 0.0000000000 0.8118988160 -0.4687500000
O 0.0000000000 0.0000000000 0.0000000000
}

set basis 6-31g
energy('hf')

--------------------------------------------------------------------------

*** tstart() called on adabbott
*** at Mon Apr 15 12:53:35 2019

   => Loading Basis Set <=

    Name: 6-31G
    Role: ORBITAL
    Keyword: BASIS
    atoms 1-2 entry H          line    26 file /home/adabbott/anaconda3/envs/trial4/share/psi4/basis/6-31g.gbs 
    atoms 3   entry O          line   117 file /home/adabbott/anaconda3/envs/trial4/share/psi4/basis/6-31g.gbs 


         ---------------------------------------------------------
                                   SCF
               by Justin Turney, Rob Parrish, Andy Simmonett
                          and Daniel G. A. Smith
                              RHF Reference
                        1 Threads,    500 MiB Core
         ---------------------------------------------------------

  ==> Geometry <==

    Molecular point group: cs
    Full point group: Cs

    Geometry (in Angstrom), charge = 0, multiplicity = 1:

       Center              X                  Y                   Z               Mass       
    ------------   -----------------  -----------------  -----------------  -----------------
         H            0.045431776558    -1.076477400160     0.000000000000     1.007825032230
         H           -0.766467039442     0.504772599840     0.000000000000     1.007825032230
         O            0.045431776558     0.036022599840     0.000000000000    15.994914619570

  Running in cs symmetry.

  Rotational constants: A =     37.05545  B =     10.42107  C =      8.13365 [cm^-1]
  Rotational constants: A = 1110894.50914  B = 312415.69533  C = 243840.64656 [MHz]
  Nuclear repulsion =    8.618672319157238

  Charge       = 0
  Multiplicity = 1
  Electrons    = 10
  Nalpha       = 5
  Nbeta        = 5

  ==> Algorithm <==

  SCF Algorithm Type is DF.
  DIIS enabled.
  MOM disabled.
  Fractional occupation disabled.
  Guess Type is SAD.
  Energy threshold   = 1.00e-06
  Density threshold  = 1.00e-06
  Integral threshold = 0.00e+00

  ==> Primary Basis <==

  Basis Set: 6-31G
    Blend: 6-31G
    Number of shells: 9
    Number of basis function: 13
    Number of Cartesian functions: 13
    Spherical Harmonics?: false
    Max angular momentum: 1

   => Loading Basis Set <=

    Name: (6-31G AUX)
    Role: JKFIT
    Keyword: DF_BASIS_SCF
    atoms 1-2 entry H          line    51 file /home/adabbott/anaconda3/envs/trial4/share/psi4/basis/cc-pvdz-jkfit.gbs 
    atoms 3   entry O          line   221 file /home/adabbott/anaconda3/envs/trial4/share/psi4/basis/cc-pvdz-jkfit.gbs 

  ==> Pre-Iterations <==

   -------------------------------------------------------
    Irrep   Nso     Nmo     Nalpha   Nbeta   Ndocc  Nsocc
   -------------------------------------------------------
     A'        11      11       0       0       0       0
     A"         2       2       0       0       0       0
   -------------------------------------------------------
    Total      13      13       5       5       5       0
   -------------------------------------------------------

  ==> Integral Setup <==

  DFHelper Memory: AOs need 0.000 GiB; user supplied 0.366 GiB. Using in-core AOs.

  ==> MemDFJK: Density-Fitted J/K Matrices <==

    J tasked:                   Yes
    K tasked:                   Yes
    wK tasked:                   No
    OpenMP threads:               1
    Memory [MiB]:               375
    Algorithm:                 Core
    Schwarz Cutoff:           1E-12
    Mask sparsity (%):       0.0000
    Fitting Condition:        1E-10

   => Auxiliary Basis Set <=

  Basis Set: (6-31G AUX)
    Blend: CC-PVDZ-JKFIT
    Number of shells: 42
    Number of basis function: 131
    Number of Cartesian functions: 131
    Spherical Harmonics?: false
    Max angular momentum: 3

  Minimum eigenvalue in the overlap matrix is 7.6559289939E-02.
  Using Symmetric Orthogonalization.

  SCF Guess: Superposition of Atomic Densities via on-the-fly atomic UHF.

  ==> Iterations <==

                           Total Energy        Delta E     RMS |[F,P]|

   @DF-RHF iter SAD:   -75.40689679237363   -7.54069e+01   0.00000e+00 
   @DF-RHF iter   1:   -75.88685323571204   -4.79956e-01   3.62463e-02 DIIS
   @DF-RHF iter   2:   -75.93905081278288   -5.21976e-02   2.27145e-02 DIIS
   @DF-RHF iter   3:   -75.96149572204888   -2.24449e-02   1.94342e-03 DIIS
   @DF-RHF iter   4:   -75.96201484688150   -5.19125e-04   4.56601e-04 DIIS
   @DF-RHF iter   5:   -75.96204650167363   -3.16548e-05   7.91620e-05 DIIS
   @DF-RHF iter   6:   -75.96204789792655   -1.39625e-06   2.26536e-05 DIIS
   @DF-RHF iter   7:   -75.96204801501401   -1.17087e-07   3.24316e-06 DIIS
   @DF-RHF iter   8:   -75.96204801694360   -1.92959e-09   5.01955e-07 DIIS
  Energy and wave function converged.


  ==> Post-Iterations <==

    Orbital Energies [Eh]
    ---------------------

    Doubly Occupied:                                                      

       1Ap   -20.558584     2Ap    -1.314218     3Ap    -0.695141  
       4Ap    -0.520192     1App   -0.489260  

    Virtual:                                                              

       5Ap     0.177389     6Ap     0.289038     7Ap     1.000828  
       8Ap     1.160139     2App    1.171865     9Ap     1.214854  
      10Ap     1.406730    11Ap     1.648228  

    Final Occupation by Irrep:
             Ap   App 
    DOCC [     4,    1 ]

  @DF-RHF Final Energy:   -75.96204801694360

   => Energetics <=

    Nuclear Repulsion Energy =              8.6186723191572376
    One-Electron Energy =                -122.0066390593285064
    Two-Electron Energy =                  37.4259187232276673
    Total Energy =                        -75.9620480169435979

Computation Completed


Properties will be evaluated at   0.000000,   0.000000,   0.000000 [a0]

Properties computed using the SCF density matrix

  Nuclear Dipole Moment: [e a0]
     X:    -0.6757      Y:    -0.5358      Z:     0.0000

  Electronic Dipole Moment: [e a0]
     X:    -0.0976      Y:     0.0222      Z:     0.0000

  Dipole Moment: [e a0]
     X:    -0.7733      Y:    -0.5136      Z:     0.0000     Total:     0.9283

  Dipole Moment: [D]
     X:    -1.9655      Y:    -1.3053      Z:     0.0000     Total:     2.3594


*** tstop() called on adabbott at Mon Apr 15 12:53:35 2019
Module time:
	user time   =       0.37 seconds =       0.01 minutes
	system time =       0.01 seconds =       0.00 minutes
	total time  =          0 seconds =       0.00 minutes
Total time:
	user time   =       0.37 seconds =       0.01 minutes
	system time =       0.01 seconds =       0.00 minutes
	total time  =          0 seconds =       0.00 minutes

    Psi4 stopped on: Monday, 15 April 2019 12:53PM
    Psi4 wall time for execution: 0:00:00.38

*** Psi4 exiting successfully. Buy a developer a beer!
