
    -----------------------------------------------------------------------
          Psi4: An Open-Source Ab Initio Electronic Structure Package
                               Psi4 1.3.1 release

                         Git: Rev {HEAD} 2ce1c29 


    R. M. Parrish, L. A. Burns, D. G. A. Smith, A. C. Simmonett,
    A. E. DePrince III, E. G. Hohenstein, U. Bozkaya, A. Yu. Sokolov,
    R. Di Remigio, R. M. Richard, J. F. Gonthier, A. M. James,
    H. R. McAlexander, A. Kumar, M. Saitow, X. Wang, B. P. Pritchard,
    P. Verma, H. F. Schaefer III, K. Patkowski, R. A. King, E. F. Valeev,
    F. A. Evangelista, J. M. Turney, T. D. Crawford, and C. D. Sherrill,
    J. Chem. Theory Comput. 13(7) pp 3185--3197 (2017).
    (doi: 10.1021/acs.jctc.7b00174)


                         Additional Contributions by
    P. Kraus, H. Kruse, M. H. Lechner, M. C. Schieber, R. A. Shaw,
    A. Alenaizan, R. Galvelis, Z. L. Glick, S. Lehtola, and J. P. Misiewicz

    -----------------------------------------------------------------------


    Psi4 started on: Monday, 08 July 2019 02:24PM

    Process ID: 5790
    Host:       adabbott
    PSIDATADIR: /home/adabbott/anaconda3/envs/peslearn/share/psi4
    Memory:     500.0 MiB
    Threads:    1
    
  ==> Input File <==

--------------------------------------------------------------------------
# density fitted hartree fock 
molecule h2o {
0 1
H 0.0000000000 0.0000000000 0.9375000000
H 0.0000000000 0.8210369523 -0.2199961883
O 0.0000000000 0.0000000000 0.0000000000
}

set basis 6-31g
energy('hf')

--------------------------------------------------------------------------

*** tstart() called on adabbott
*** at Mon Jul  8 14:24:54 2019

   => Loading Basis Set <=

    Name: 6-31G
    Role: ORBITAL
    Keyword: BASIS
    atoms 1-2 entry H          line    26 file /home/adabbott/anaconda3/envs/peslearn/share/psi4/basis/6-31g.gbs 
    atoms 3   entry O          line   117 file /home/adabbott/anaconda3/envs/peslearn/share/psi4/basis/6-31g.gbs 


         ---------------------------------------------------------
                                   SCF
               by Justin Turney, Rob Parrish, Andy Simmonett
                          and Daniel G. A. Smith
                              RHF Reference
                        1 Threads,    500 MiB Core
         ---------------------------------------------------------

  ==> Geometry <==

    Molecular point group: cs
    Full point group: Cs

    Geometry (in Angstrom), charge = 0, multiplicity = 1:

       Center              X                  Y                   Z               Mass       
    ------------   -----------------  -----------------  -----------------  -----------------
         H            0.045943123241    -0.897350325915     0.000000000000     1.007825032230
         H           -0.775093829059     0.260145862385     0.000000000000     1.007825032230
         O            0.045943123241     0.040149674085     0.000000000000    15.994914619570

  Running in cs symmetry.

  Rotational constants: A =     32.36309  B =     16.43048  C =     10.89777 [cm^-1]
  Rotational constants: A = 970221.08112  B = 492573.28341  C = 326706.88044 [MHz]
  Nuclear repulsion =    9.869028249663385

  Charge       = 0
  Multiplicity = 1
  Electrons    = 10
  Nalpha       = 5
  Nbeta        = 5

  ==> Algorithm <==

  SCF Algorithm Type is DF.
  DIIS enabled.
  MOM disabled.
  Fractional occupation disabled.
  Guess Type is SAD.
  Energy threshold   = 1.00e-06
  Density threshold  = 1.00e-06
  Integral threshold = 0.00e+00

  ==> Primary Basis <==

  Basis Set: 6-31G
    Blend: 6-31G
    Number of shells: 9
    Number of basis function: 13
    Number of Cartesian functions: 13
    Spherical Harmonics?: false
    Max angular momentum: 1

   => Loading Basis Set <=

    Name: (6-31G AUX)
    Role: JKFIT
    Keyword: DF_BASIS_SCF
    atoms 1-2 entry H          line    51 file /home/adabbott/anaconda3/envs/peslearn/share/psi4/basis/cc-pvdz-jkfit.gbs 
    atoms 3   entry O          line   221 file /home/adabbott/anaconda3/envs/peslearn/share/psi4/basis/cc-pvdz-jkfit.gbs 

  ==> Pre-Iterations <==

   -------------------------------------------------------
    Irrep   Nso     Nmo     Nalpha   Nbeta   Ndocc  Nsocc
   -------------------------------------------------------
     A'        11      11       0       0       0       0
     A"         2       2       0       0       0       0
   -------------------------------------------------------
    Total      13      13       5       5       5       0
   -------------------------------------------------------

  ==> Integral Setup <==

  DFHelper Memory: AOs need 0.000 GiB; user supplied 0.366 GiB. Using in-core AOs.

  ==> MemDFJK: Density-Fitted J/K Matrices <==

    J tasked:                   Yes
    K tasked:                   Yes
    wK tasked:                   No
    OpenMP threads:               1
    Memory [MiB]:               375
    Algorithm:                 Core
    Schwarz Cutoff:           1E-12
    Mask sparsity (%):       0.0000
    Fitting Condition:        1E-10

   => Auxiliary Basis Set <=

  Basis Set: (6-31G AUX)
    Blend: CC-PVDZ-JKFIT
    Number of shells: 42
    Number of basis function: 131
    Number of Cartesian functions: 131
    Spherical Harmonics?: false
    Max angular momentum: 3

  Minimum eigenvalue in the overlap matrix is 5.8270630009E-02.
  Using Symmetric Orthogonalization.

  SCF Guess: Superposition of Atomic Densities via on-the-fly atomic UHF.

  ==> Iterations <==

                           Total Energy        Delta E     RMS |[F,P]|

   @DF-RHF iter SAD:   -75.61197469831576   -7.56120e+01   0.00000e+00 
   @DF-RHF iter   1:   -75.89657685365830   -2.84602e-01   3.71002e-02 DIIS
   @DF-RHF iter   2:   -75.95257150837467   -5.59947e-02   1.98406e-02 DIIS
   @DF-RHF iter   3:   -75.96935922309821   -1.67877e-02   1.65633e-03 DIIS
   @DF-RHF iter   4:   -75.96961510467142   -2.55882e-04   2.44761e-04 DIIS
   @DF-RHF iter   5:   -75.96962206236446   -6.95769e-06   4.13609e-05 DIIS
   @DF-RHF iter   6:   -75.96962233798007   -2.75616e-07   6.68416e-06 DIIS
   @DF-RHF iter   7:   -75.96962234520220   -7.22213e-09   1.16689e-06 DIIS
   @DF-RHF iter   8:   -75.96962234541795   -2.15749e-10   2.19084e-07 DIIS
  Energy and wave function converged.


  ==> Post-Iterations <==

    Orbital Energies [Eh]
    ---------------------

    Doubly Occupied:                                                      

       1Ap   -20.547317     2Ap    -1.395299     3Ap    -0.748663  
       4Ap    -0.568703     1App   -0.505491  

    Virtual:                                                              

       5Ap     0.216228     6Ap     0.316015     7Ap     1.074757  
       2App    1.164221     8Ap     1.199040     9Ap     1.290322  
      10Ap     1.435412    11Ap     1.695792  

    Final Occupation by Irrep:
             Ap   App 
    DOCC [     4,    1 ]

  @DF-RHF Final Energy:   -75.96962234541795

   => Energetics <=

    Nuclear Repulsion Energy =              9.8690282496633852
    One-Electron Energy =                -124.1463527394128477
    Two-Electron Energy =                  38.3077021443315004
    Total Energy =                        -75.9696223454179602

Computation Completed


Properties will be evaluated at   0.000000,   0.000000,   0.000000 [a0]

Properties computed using the SCF density matrix

  Nuclear Dipole Moment: [e a0]
     X:    -0.6833      Y:    -0.5972      Z:     0.0000

  Electronic Dipole Moment: [e a0]
     X:    -0.1135      Y:    -0.0394      Z:     0.0000

  Dipole Moment: [e a0]
     X:    -0.7968      Y:    -0.6366      Z:     0.0000     Total:     1.0198

  Dipole Moment: [D]
     X:    -2.0252      Y:    -1.6180      Z:     0.0000     Total:     2.5922


*** tstop() called on adabbott at Mon Jul  8 14:24:55 2019
Module time:
	user time   =       0.34 seconds =       0.01 minutes
	system time =       0.01 seconds =       0.00 minutes
	total time  =          1 seconds =       0.02 minutes
Total time:
	user time   =       0.34 seconds =       0.01 minutes
	system time =       0.01 seconds =       0.00 minutes
	total time  =          1 seconds =       0.02 minutes

    Psi4 stopped on: Monday, 08 July 2019 02:24PM
    Psi4 wall time for execution: 0:00:00.36

*** Psi4 exiting successfully. Buy a developer a beer!
