
    -----------------------------------------------------------------------
          Psi4: An Open-Source Ab Initio Electronic Structure Package
                               Psi4 1.2.1 release

                         Git: Rev {HEAD} 406f4de 


    R. M. Parrish, L. A. Burns, D. G. A. Smith, A. C. Simmonett,
    A. E. DePrince III, E. G. Hohenstein, U. Bozkaya, A. Yu. Sokolov,
    R. Di Remigio, R. M. Richard, J. F. Gonthier, A. M. James,
    H. R. McAlexander, A. Kumar, M. Saitow, X. Wang, B. P. Pritchard,
    P. Verma, H. F. Schaefer III, K. Patkowski, R. A. King, E. F. Valeev,
    F. A. Evangelista, J. M. Turney, T. D. Crawford, and C. D. Sherrill,
    J. Chem. Theory Comput. 13(7) pp 3185--3197 (2017).
    (doi: 10.1021/acs.jctc.7b00174)


                         Additional Contributions by
    P. Kraus, H. Kruse, M. H. Lechner, M. C. Schieber, and R. A. Shaw

    -----------------------------------------------------------------------


    Psi4 started on: Tuesday, 15 January 2019 03:15PM

    Process ID: 1224
    Host:       adabbott
    PSIDATADIR: /home/adabbott/anaconda3/envs/mlchem/share/psi4
    Memory:     500.0 MiB
    Threads:    1
    
  ==> Input File <==

--------------------------------------------------------------------------
# density fitted hartree fock 
molecule h2o {
0 1
H 0.0000000000 0.0000000000 0.9375000000
H 0.0000000000 0.9375000000 0.0000000000
O 0.0000000000 0.0000000000 0.0000000000
}

set basis 6-31g
energy('hf')

--------------------------------------------------------------------------

*** tstart() called on adabbott
*** at Tue Jan 15 15:15:31 2019

   => Loading Basis Set <=

    Name: 6-31G
    Role: ORBITAL
    Keyword: BASIS
    atoms 1-2 entry H          line    26 file /home/adabbott/anaconda3/envs/mlchem/share/psi4/basis/6-31g.gbs 
    atoms 3   entry O          line   117 file /home/adabbott/anaconda3/envs/mlchem/share/psi4/basis/6-31g.gbs 


         ---------------------------------------------------------
                                   SCF
            by Justin Turney, Rob Parrish, Andy Simmonett
                             and Daniel Smith
                              RHF Reference
                        1 Threads,    500 MiB Core
         ---------------------------------------------------------

  ==> Geometry <==

    Molecular point group: c2v
    Full point group: C2v

    Geometry (in Angstrom), charge = 0, multiplicity = 1:

       Center              X                  Y                   Z               Mass       
    ------------   -----------------  -----------------  -----------------  -----------------
         H            0.000000000000    -0.662912607362     0.588722826919     1.007825032070
         H           -0.000000000000     0.662912607362     0.588722826919     1.007825032070
         O           -0.000000000000     0.000000000000    -0.074189780444    15.994914619560

  Running in c2v symmetry.

  Rotational constants: A =     21.42961  B =     19.03132  C =     10.07969 [cm^-1]
  Rotational constants: A = 642443.44970  B = 570544.47245  C = 302181.54064 [MHz]
  Nuclear repulsion =    9.430421472088913

  Charge       = 0
  Multiplicity = 1
  Electrons    = 10
  Nalpha       = 5
  Nbeta        = 5

  ==> Algorithm <==

  SCF Algorithm Type is DF.
  DIIS enabled.
  MOM disabled.
  Fractional occupation disabled.
  Guess Type is SAD.
  Energy threshold   = 1.00e-06
  Density threshold  = 1.00e-06
  Integral threshold = 0.00e+00

  ==> Primary Basis <==

  Basis Set: 6-31G
    Blend: 6-31G
    Number of shells: 9
    Number of basis function: 13
    Number of Cartesian functions: 13
    Spherical Harmonics?: false
    Max angular momentum: 1

   => Loading Basis Set <=

    Name: (6-31G AUX)
    Role: JKFIT
    Keyword: DF_BASIS_SCF
    atoms 1-2 entry H          line    51 file /home/adabbott/anaconda3/envs/mlchem/share/psi4/basis/cc-pvdz-jkfit.gbs 
    atoms 3   entry O          line   221 file /home/adabbott/anaconda3/envs/mlchem/share/psi4/basis/cc-pvdz-jkfit.gbs 

  ==> Pre-Iterations <==

   -------------------------------------------------------
    Irrep   Nso     Nmo     Nalpha   Nbeta   Ndocc  Nsocc
   -------------------------------------------------------
     A1         7       7       0       0       0       0
     A2         0       0       0       0       0       0
     B1         2       2       0       0       0       0
     B2         4       4       0       0       0       0
   -------------------------------------------------------
    Total      13      13       5       5       5       0
   -------------------------------------------------------

  ==> Integral Setup <==

  ==> DiskDFJK: Density-Fitted J/K Matrices <==

    J tasked:                  Yes
    K tasked:                  Yes
    wK tasked:                  No
    OpenMP threads:              1
    Integrals threads:           1
    Memory (MB):               375
    Algorithm:                Core
    Integral Cache:           NONE
    Schwarz Cutoff:          1E-12
    Fitting Condition:       1E-12

   => Auxiliary Basis Set <=

  Basis Set: (6-31G AUX)
    Blend: CC-PVDZ-JKFIT
    Number of shells: 42
    Number of basis function: 131
    Number of Cartesian functions: 131
    Spherical Harmonics?: false
    Max angular momentum: 3

  Minimum eigenvalue in the overlap matrix is 6.1818731389E-02.
  Using Symmetric Orthogonalization.

  SCF Guess: Superposition of Atomic Densities via on-the-fly atomic UHF.

  ==> Iterations <==

                           Total Energy        Delta E     RMS |[F,P]|

   @DF-RHF iter   0:   -76.11762226109872   -7.61176e+01   2.17006e-01 
   @DF-RHF iter   1:   -75.92636768151168    1.91255e-01   3.57008e-02 
   @DF-RHF iter   2:   -75.96139676245375   -3.50291e-02   1.83050e-02 DIIS
   @DF-RHF iter   3:   -75.96968030226941   -8.28354e-03   2.83931e-03 DIIS
   @DF-RHF iter   4:   -75.97015802736671   -4.77725e-04   6.67627e-04 DIIS
   @DF-RHF iter   5:   -75.97019793054164   -3.99032e-05   8.03042e-05 DIIS
   @DF-RHF iter   6:   -75.97019868213933   -7.51598e-07   1.78318e-05 DIIS
   @DF-RHF iter   7:   -75.97019871458005   -3.24407e-08   1.86625e-06 DIIS
   @DF-RHF iter   8:   -75.97019871478187   -2.01823e-10   2.04216e-07 DIIS

  ==> Post-Iterations <==

    Orbital Energies [Eh]
    ---------------------

    Doubly Occupied:                                                      

       1A1   -20.565869     2A1    -1.385327     1B2    -0.691592  
       3A1    -0.592462     1B1    -0.508946  

    Virtual:                                                              

       4A1     0.201627     2B2     0.303467     3B2     1.000684  
       2B1     1.159505     5A1     1.206948     6A1     1.291499  
       4B2     1.376843     7A1     1.743565  

    Final Occupation by Irrep:
             A1    A2    B1    B2 
    DOCC [     3,    0,    1,    1 ]

  Energy converged.

  @DF-RHF Final Energy:   -75.97019871478187

   => Energetics <=

    Nuclear Repulsion Energy =              9.4304214720889128
    One-Electron Energy =                -123.3128437513316840
    Two-Electron Energy =                  37.9122235644608949
    Total Energy =                        -75.9701987147818727



Properties will be evaluated at   0.000000,   0.000000,   0.000000 [a0]

Properties computed using the SCF density matrix

  Nuclear Dipole Moment: [e a0]
     X:    -0.0000      Y:     0.0000      Z:     1.1035

  Electronic Dipole Moment: [e a0]
     X:     0.0000      Y:     0.0000      Z:     0.0156

  Dipole Moment: [e a0]
     X:    -0.0000      Y:     0.0000      Z:     1.1191     Total:     1.1191

  Dipole Moment: [D]
     X:    -0.0000      Y:     0.0000      Z:     2.8444     Total:     2.8444


*** tstop() called on adabbott at Tue Jan 15 15:15:31 2019
Module time:
	user time   =       0.21 seconds =       0.00 minutes
	system time =       0.00 seconds =       0.00 minutes
	total time  =          0 seconds =       0.00 minutes
Total time:
	user time   =       0.21 seconds =       0.00 minutes
	system time =       0.00 seconds =       0.00 minutes
	total time  =          0 seconds =       0.00 minutes

    Psi4 stopped on: Tuesday, 15 January 2019 03:15PM
    Psi4 wall time for execution: 0:00:00.22

*** Psi4 exiting successfully. Buy a developer a beer!
