
    -----------------------------------------------------------------------
          Psi4: An Open-Source Ab Initio Electronic Structure Package
                               Psi4 1.2a1.dev429 

                         Git: Rev {fixsym} 7838fc1 dirty


    R. M. Parrish, L. A. Burns, D. G. A. Smith, A. C. Simmonett,
    A. E. DePrince III, E. G. Hohenstein, U. Bozkaya, A. Yu. Sokolov,
    R. Di Remigio, R. M. Richard, J. F. Gonthier, A. M. James,
    H. R. McAlexander, A. Kumar, M. Saitow, X. Wang, B. P. Pritchard,
    P. Verma, H. F. Schaefer III, K. Patkowski, R. A. King, E. F. Valeev,
    F. A. Evangelista, J. M. Turney, T. D. Crawford, and C. D. Sherrill,
    J. Chem. Theory Comput. in press (2017).
    (doi: 10.1021/acs.jctc.7b00174)

    -----------------------------------------------------------------------


    Psi4 started on: Wednesday, 18 April 2018 09:27PM

    Process ID:  30571
    PSIDATADIR: /home/adabbott/Git/psi4/objdir/stage/usr/local/psi4/share/psi4
    Memory:     500.0 MiB
    Threads:    1
    
  ==> Input File <==

--------------------------------------------------------------------------
molecule h20 {
0 1
O 0.0000 0.0000 0.000
O 0.000 0.000 1.000
}

set basis 6-31g

energy('hf')

molecule h20 {
0 1
O 0.0000 0.0000 0.000
O 0.000 0.000 1.100
}
energy('hf')
molecule h20 {
0 1
O 0.0000 0.0000 0.000
O 0.000 0.000 1.200
}
energy('hf')
--------------------------------------------------------------------------

*** tstart() called on adabbott
*** at Wed Apr 18 21:27:12 2018

   => Loading Basis Set <=

    Name: 6-31G
    Role: ORBITAL
    Keyword: BASIS
    atoms 1-2 entry O          line   113 file /home/adabbott/Git/psi4/objdir/stage/usr/local/psi4/share/psi4/basis/6-31g.gbs 


         ---------------------------------------------------------
                                   SCF
            by Justin Turney, Rob Parrish, Andy Simmonett
                             and Daniel Smith
                              RHF Reference
                        1 Threads,    500 MiB Core
         ---------------------------------------------------------

  ==> Geometry <==

    Molecular point group: d2h
    Full point group: D_inf_h

    Geometry (in Angstrom), charge = 0, multiplicity = 1:

       Center              X                  Y                   Z               Mass       
    ------------   -----------------  -----------------  -----------------  -----------------
           O          0.000000000000     0.000000000000    -0.500000000000    15.994914619560
           O          0.000000000000     0.000000000000     0.500000000000    15.994914619560

  Running in d2h symmetry.

  Rotational constants: A = ************  B =      2.10787  C =      2.10787 [cm^-1]
  Rotational constants: A = ************  B =  63192.46048  C =  63192.46048 [MHz]
  Nuclear repulsion =   33.867341349759990

  Charge       = 0
  Multiplicity = 1
  Electrons    = 16
  Nalpha       = 8
  Nbeta        = 8

  ==> Algorithm <==

  SCF Algorithm Type is DF.
  DIIS enabled.
  MOM disabled.
  Fractional occupation disabled.
  Guess Type is SAD.
  Energy threshold   = 1.00e-06
  Density threshold  = 1.00e-06
  Integral threshold = 0.00e+00

  ==> Primary Basis <==

  Basis Set: 6-31G
    Blend: 6-31G
    Number of shells: 10
    Number of basis function: 18
    Number of Cartesian functions: 18
    Spherical Harmonics?: false
    Max angular momentum: 1

   => Loading Basis Set <=

    Name: (6-31G AUX)
    Role: JKFIT
    Keyword: DF_BASIS_SCF
    atoms 1-2 entry O          line   221 file /home/adabbott/Git/psi4/objdir/stage/usr/local/psi4/share/psi4/basis/cc-pvdz-jkfit.gbs 

  ==> Pre-Iterations <==

   -------------------------------------------------------
    Irrep   Nso     Nmo     Nalpha   Nbeta   Ndocc  Nsocc
   -------------------------------------------------------
     Ag         5       5       0       0       0       0
     B1g        0       0       0       0       0       0
     B2g        2       2       0       0       0       0
     B3g        2       2       0       0       0       0
     Au         0       0       0       0       0       0
     B1u        5       5       0       0       0       0
     B2u        2       2       0       0       0       0
     B3u        2       2       0       0       0       0
   -------------------------------------------------------
    Total      18      18       8       8       8       0
   -------------------------------------------------------

  ==> Integral Setup <==

  ==> DFJK: Density-Fitted J/K Matrices <==

    J tasked:                  Yes
    K tasked:                  Yes
    wK tasked:                  No
    OpenMP threads:              1
    Integrals threads:           1
    Memory (MB):               375
    Algorithm:                Core
    Integral Cache:           NONE
    Schwarz Cutoff:          1E-12
    Fitting Condition:       1E-12

   => Auxiliary Basis Set <=

  Basis Set: (6-31G AUX)
    Blend: CC-PVDZ-JKFIT
    Number of shells: 48
    Number of basis function: 162
    Number of Cartesian functions: 162
    Spherical Harmonics?: false
    Max angular momentum: 3

  Minimum eigenvalue in the overlap matrix is 8.9843599994E-03.
  Using Symmetric Orthogonalization.

  SCF Guess: Superposition of Atomic Densities via on-the-fly atomic UHF.

  ==> Iterations <==

                           Total Energy        Delta E     RMS |[F,P]|

   @DF-RHF iter   0:  -150.23124701285147   -1.50231e+02   3.31584e-01 
   @DF-RHF iter   1:  -149.34580427441668    8.85443e-01   1.96467e-02 
   @DF-RHF iter   2:  -149.35612064222042   -1.03164e-02   4.35895e-03 DIIS
   @DF-RHF iter   3:  -149.35669879842442   -5.78156e-04   1.16436e-03 DIIS
   @DF-RHF iter   4:  -149.35674007886956   -4.12804e-05   1.00590e-04 DIIS
   @DF-RHF iter   5:  -149.35674051798335   -4.39114e-07   1.37640e-05 DIIS
   @DF-RHF iter   6:  -149.35674052560404   -7.62068e-09   6.89566e-07 DIIS

  ==> Post-Iterations <==

    Orbital Energies (a.u.)
    -----------------------

    Doubly Occupied:                                                      

       1Ag   -20.724225     1B1u  -20.721633     2Ag    -1.942901  
       2B1u   -1.023778     1B3u   -0.882578     3Ag    -0.787802  
       1B2u   -0.778338     1B2g   -0.385986  

    Virtual:                                                              

       1B3g    0.117616     3B1u    0.688011     4Ag     1.010140  
       2B3u    1.036185     2B2u    1.044848     5Ag     1.163958  
       2B2g    1.184251     2B3g    1.222828     4B1u    1.329488  
       5B1u    1.846507  

    Final Occupation by Irrep:
             Ag   B1g   B2g   B3g    Au   B1u   B2u   B3u 
    DOCC [     3,    0,    1,    0,    0,    2,    1,    1 ]

  Energy converged.

  @DF-RHF Final Energy:  -149.35674052560404

   => Energetics <=

    Nuclear Repulsion Energy =             33.8673413497599896
    One-Electron Energy =                -271.9536799911786034
    Two-Electron Energy =                  88.7295981158145679
    Total Energy =                       -149.3567405256040388



Properties will be evaluated at   0.000000,   0.000000,   0.000000 Bohr

Properties computed using the SCF density matrix

  Nuclear Dipole Moment: (a.u.)
     X:     0.0000      Y:     0.0000      Z:     0.0000

  Electronic Dipole Moment: (a.u.)
     X:     0.0000      Y:     0.0000      Z:     0.0000

  Dipole Moment: (a.u.)
     X:     0.0000      Y:     0.0000      Z:     0.0000     Total:     0.0000

  Dipole Moment: (Debye)
     X:     0.0000      Y:     0.0000      Z:     0.0000     Total:     0.0000


*** tstop() called on adabbott at Wed Apr 18 21:27:13 2018
Module time:
	user time   =       0.23 seconds =       0.00 minutes
	system time =       0.29 seconds =       0.00 minutes
	total time  =          1 seconds =       0.02 minutes
Total time:
	user time   =       0.23 seconds =       0.00 minutes
	system time =       0.29 seconds =       0.00 minutes
	total time  =          1 seconds =       0.02 minutes

*** tstart() called on adabbott
*** at Wed Apr 18 21:27:13 2018

   => Loading Basis Set <=

    Name: 6-31G
    Role: ORBITAL
    Keyword: BASIS
    atoms 1-2 entry O          line   113 file /home/adabbott/Git/psi4/objdir/stage/usr/local/psi4/share/psi4/basis/6-31g.gbs 


         ---------------------------------------------------------
                                   SCF
            by Justin Turney, Rob Parrish, Andy Simmonett
                             and Daniel Smith
                              RHF Reference
                        1 Threads,    500 MiB Core
         ---------------------------------------------------------

  ==> Geometry <==

    Molecular point group: d2h
    Full point group: D_inf_h

    Geometry (in Angstrom), charge = 0, multiplicity = 1:

       Center              X                  Y                   Z               Mass       
    ------------   -----------------  -----------------  -----------------  -----------------
           O          0.000000000000     0.000000000000    -0.550000000000    15.994914619560
           O          0.000000000000     0.000000000000     0.550000000000    15.994914619560

  Running in d2h symmetry.

  Rotational constants: A = ************  B =      1.74204  C =      1.74204 [cm^-1]
  Rotational constants: A = ************  B =  52225.17395  C =  52225.17395 [MHz]
  Nuclear repulsion =   30.788492136145447

  Charge       = 0
  Multiplicity = 1
  Electrons    = 16
  Nalpha       = 8
  Nbeta        = 8

  ==> Algorithm <==

  SCF Algorithm Type is DF.
  DIIS enabled.
  MOM disabled.
  Fractional occupation disabled.
  Guess Type is SAD.
  Energy threshold   = 1.00e-06
  Density threshold  = 1.00e-06
  Integral threshold = 0.00e+00

  ==> Primary Basis <==

  Basis Set: 6-31G
    Blend: 6-31G
    Number of shells: 10
    Number of basis function: 18
    Number of Cartesian functions: 18
    Spherical Harmonics?: false
    Max angular momentum: 1

   => Loading Basis Set <=

    Name: (6-31G AUX)
    Role: JKFIT
    Keyword: DF_BASIS_SCF
    atoms 1-2 entry O          line   221 file /home/adabbott/Git/psi4/objdir/stage/usr/local/psi4/share/psi4/basis/cc-pvdz-jkfit.gbs 

  ==> Pre-Iterations <==

   -------------------------------------------------------
    Irrep   Nso     Nmo     Nalpha   Nbeta   Ndocc  Nsocc
   -------------------------------------------------------
     Ag         5       5       0       0       0       0
     B1g        0       0       0       0       0       0
     B2g        2       2       0       0       0       0
     B3g        2       2       0       0       0       0
     Au         0       0       0       0       0       0
     B1u        5       5       0       0       0       0
     B2u        2       2       0       0       0       0
     B3u        2       2       0       0       0       0
   -------------------------------------------------------
    Total      18      18       8       8       8       0
   -------------------------------------------------------

  ==> Integral Setup <==

  ==> DFJK: Density-Fitted J/K Matrices <==

    J tasked:                  Yes
    K tasked:                  Yes
    wK tasked:                  No
    OpenMP threads:              1
    Integrals threads:           1
    Memory (MB):               375
    Algorithm:                Core
    Integral Cache:           NONE
    Schwarz Cutoff:          1E-12
    Fitting Condition:       1E-12

   => Auxiliary Basis Set <=

  Basis Set: (6-31G AUX)
    Blend: CC-PVDZ-JKFIT
    Number of shells: 48
    Number of basis function: 162
    Number of Cartesian functions: 162
    Spherical Harmonics?: false
    Max angular momentum: 3

  Minimum eigenvalue in the overlap matrix is 1.4532558414E-02.
  Using Symmetric Orthogonalization.

  SCF Guess: Superposition of Atomic Densities via on-the-fly atomic UHF.

  ==> Iterations <==

                           Total Energy        Delta E     RMS |[F,P]|

   @DF-RHF iter   0:  -149.76983292388672   -1.49770e+02   2.55197e-01 
   @DF-RHF iter   1:  -149.43185509119991    3.37978e-01   1.98092e-02 
   @DF-RHF iter   2:  -149.44224986192862   -1.03948e-02   4.97357e-03 DIIS
   @DF-RHF iter   3:  -149.44297048232667   -7.20620e-04   1.15499e-03 DIIS
   @DF-RHF iter   4:  -149.44301891768885   -4.84354e-05   1.13871e-04 DIIS
   @DF-RHF iter   5:  -149.44301955457072   -6.36882e-07   1.65720e-05 DIIS
   @DF-RHF iter   6:  -149.44301956723990   -1.26692e-08   9.05709e-07 DIIS

  ==> Post-Iterations <==

    Orbital Energies (a.u.)
    -----------------------

    Doubly Occupied:                                                      

       1Ag   -20.739040     1B1u  -20.737640     2Ag    -1.812479  
       2B1u   -1.063742     1B3u   -0.828125     3Ag    -0.759165  
       1B2u   -0.712816     1B2g   -0.441792  

    Virtual:                                                              

       1B3g    0.060713     3B1u    0.575518     2B3u    1.054179  
       2B2u    1.072525     4Ag     1.089720     5Ag     1.171008  
       4B1u    1.171499     2B2g    1.172722     2B3g    1.207320  
       5B1u    1.751203  

    Final Occupation by Irrep:
             Ag   B1g   B2g   B3g    Au   B1u   B2u   B3u 
    DOCC [     3,    0,    1,    0,    0,    2,    1,    1 ]

  Energy converged.

  @DF-RHF Final Energy:  -149.44301956723990

   => Energetics <=

    Nuclear Repulsion Energy =             30.7884921361454467
    One-Electron Energy =                -266.2734235250226220
    Two-Electron Energy =                  86.0419118216372993
    Total Energy =                       -149.4430195672399009



Properties will be evaluated at   0.000000,   0.000000,   0.000000 Bohr

Properties computed using the SCF density matrix

  Nuclear Dipole Moment: (a.u.)
     X:     0.0000      Y:     0.0000      Z:     0.0000

  Electronic Dipole Moment: (a.u.)
     X:     0.0000      Y:     0.0000      Z:     0.0000

  Dipole Moment: (a.u.)
     X:     0.0000      Y:     0.0000      Z:     0.0000     Total:     0.0000

  Dipole Moment: (Debye)
     X:     0.0000      Y:     0.0000      Z:     0.0000     Total:     0.0000


*** tstop() called on adabbott at Wed Apr 18 21:27:13 2018
Module time:
	user time   =       0.24 seconds =       0.00 minutes
	system time =       0.30 seconds =       0.00 minutes
	total time  =          0 seconds =       0.00 minutes
Total time:
	user time   =       0.50 seconds =       0.01 minutes
	system time =       0.67 seconds =       0.01 minutes
	total time  =          1 seconds =       0.02 minutes

*** tstart() called on adabbott
*** at Wed Apr 18 21:27:13 2018

   => Loading Basis Set <=

    Name: 6-31G
    Role: ORBITAL
    Keyword: BASIS
    atoms 1-2 entry O          line   113 file /home/adabbott/Git/psi4/objdir/stage/usr/local/psi4/share/psi4/basis/6-31g.gbs 


         ---------------------------------------------------------
                                   SCF
            by Justin Turney, Rob Parrish, Andy Simmonett
                             and Daniel Smith
                              RHF Reference
                        1 Threads,    500 MiB Core
         ---------------------------------------------------------

  ==> Geometry <==

    Molecular point group: d2h
    Full point group: D_inf_h

    Geometry (in Angstrom), charge = 0, multiplicity = 1:

       Center              X                  Y                   Z               Mass       
    ------------   -----------------  -----------------  -----------------  -----------------
           O          0.000000000000     0.000000000000    -0.600000000000    15.994914619560
           O          0.000000000000     0.000000000000     0.600000000000    15.994914619560

  Running in d2h symmetry.

  Rotational constants: A = ************  B =      1.46380  C =      1.46380 [cm^-1]
  Rotational constants: A = ************  B =  43883.65311  C =  43883.65311 [MHz]
  Nuclear repulsion =   28.222784458133336

  Charge       = 0
  Multiplicity = 1
  Electrons    = 16
  Nalpha       = 8
  Nbeta        = 8

  ==> Algorithm <==

  SCF Algorithm Type is DF.
  DIIS enabled.
  MOM disabled.
  Fractional occupation disabled.
  Guess Type is SAD.
  Energy threshold   = 1.00e-06
  Density threshold  = 1.00e-06
  Integral threshold = 0.00e+00

  ==> Primary Basis <==

  Basis Set: 6-31G
    Blend: 6-31G
    Number of shells: 10
    Number of basis function: 18
    Number of Cartesian functions: 18
    Spherical Harmonics?: false
    Max angular momentum: 1

   => Loading Basis Set <=

    Name: (6-31G AUX)
    Role: JKFIT
    Keyword: DF_BASIS_SCF
    atoms 1-2 entry O          line   221 file /home/adabbott/Git/psi4/objdir/stage/usr/local/psi4/share/psi4/basis/cc-pvdz-jkfit.gbs 

  ==> Pre-Iterations <==

   -------------------------------------------------------
    Irrep   Nso     Nmo     Nalpha   Nbeta   Ndocc  Nsocc
   -------------------------------------------------------
     Ag         5       5       0       0       0       0
     B1g        0       0       0       0       0       0
     B2g        2       2       0       0       0       0
     B3g        2       2       0       0       0       0
     Au         0       0       0       0       0       0
     B1u        5       5       0       0       0       0
     B2u        2       2       0       0       0       0
     B3u        2       2       0       0       0       0
   -------------------------------------------------------
    Total      18      18       8       8       8       0
   -------------------------------------------------------

  ==> Integral Setup <==

  ==> DFJK: Density-Fitted J/K Matrices <==

    J tasked:                  Yes
    K tasked:                  Yes
    wK tasked:                  No
    OpenMP threads:              1
    Integrals threads:           1
    Memory (MB):               375
    Algorithm:                Core
    Integral Cache:           NONE
    Schwarz Cutoff:          1E-12
    Fitting Condition:       1E-12

   => Auxiliary Basis Set <=

  Basis Set: (6-31G AUX)
    Blend: CC-PVDZ-JKFIT
    Number of shells: 48
    Number of basis function: 162
    Number of Cartesian functions: 162
    Spherical Harmonics?: false
    Max angular momentum: 3

  Minimum eigenvalue in the overlap matrix is 2.2014412722E-02.
  Using Symmetric Orthogonalization.

  SCF Guess: Superposition of Atomic Densities via on-the-fly atomic UHF.

  ==> Iterations <==

                           Total Energy        Delta E     RMS |[F,P]|

   @DF-RHF iter   0:  -150.26939078236092   -1.50269e+02   3.28771e-01 
   @DF-RHF iter   1:  -149.38874381973176    8.80647e-01   4.69013e-02 
   @DF-RHF iter   2:  -149.45565780932387   -6.69140e-02   1.39370e-02 DIIS
   @DF-RHF iter   3:  -149.46112988482776   -5.47208e-03   2.75779e-03 DIIS
   @DF-RHF iter   4:  -149.46150148499589   -3.71600e-04   2.80956e-04 DIIS
   @DF-RHF iter   5:  -149.46150513335354   -3.64836e-06   3.32606e-05 DIIS
   @DF-RHF iter   6:  -149.46150518503910   -5.16856e-08   2.00954e-06 DIIS
   @DF-RHF iter   7:  -149.46150518521284   -1.73742e-10   2.35170e-07 DIIS

  ==> Post-Iterations <==

    Orbital Energies (a.u.)
    -----------------------

    Doubly Occupied:                                                      

       1Ag   -20.756429     1B1u  -20.755560     2Ag    -1.702481  
       2B1u   -1.102339     1B3u   -0.786249     3Ag    -0.730116  
       1B2u   -0.660876     1B2g   -0.485060  

    Virtual:                                                              

       1B3g    0.013590     3B1u    0.439580     2B3u    1.058403  
       2B2u    1.084169     4B1u    1.096029     4Ag     1.126800  
       2B2g    1.167797     2B3g    1.199459     5Ag     1.229711  
       5B1u    1.694351  

    Final Occupation by Irrep:
             Ag   B1g   B2g   B3g    Au   B1u   B2u   B3u 
    DOCC [     3,    0,    1,    0,    0,    2,    1,    1 ]

  Energy converged.

  @DF-RHF Final Energy:  -149.46150518521284

   => Energetics <=

    Nuclear Repulsion Energy =             28.2227844581333365
    One-Electron Energy =                -261.4103640772950143
    Two-Electron Energy =                  83.7260744339488383
    Total Energy =                       -149.4615051852128431



Properties will be evaluated at   0.000000,   0.000000,   0.000000 Bohr

Properties computed using the SCF density matrix

  Nuclear Dipole Moment: (a.u.)
     X:     0.0000      Y:     0.0000      Z:     0.0000

  Electronic Dipole Moment: (a.u.)
     X:     0.0000      Y:     0.0000      Z:     0.0000

  Dipole Moment: (a.u.)
     X:     0.0000      Y:     0.0000      Z:     0.0000     Total:     0.0000

  Dipole Moment: (Debye)
     X:     0.0000      Y:     0.0000      Z:     0.0000     Total:     0.0000


*** tstop() called on adabbott at Wed Apr 18 21:27:13 2018
Module time:
	user time   =       0.25 seconds =       0.00 minutes
	system time =       0.30 seconds =       0.01 minutes
	total time  =          0 seconds =       0.00 minutes
Total time:
	user time   =       0.78 seconds =       0.01 minutes
	system time =       1.05 seconds =       0.02 minutes
	total time  =          1 seconds =       0.02 minutes

*** Psi4 exiting successfully. Buy a developer a beer!
