
    -----------------------------------------------------------------------
          Psi4: An Open-Source Ab Initio Electronic Structure Package
                               Psi4 1.2.1 release

                         Git: Rev {HEAD} 406f4de 


    R. M. Parrish, L. A. Burns, D. G. A. Smith, A. C. Simmonett,
    A. E. DePrince III, E. G. Hohenstein, U. Bozkaya, A. Yu. Sokolov,
    R. Di Remigio, R. M. Richard, J. F. Gonthier, A. M. James,
    H. R. McAlexander, A. Kumar, M. Saitow, X. Wang, B. P. Pritchard,
    P. Verma, H. F. Schaefer III, K. Patkowski, R. A. King, E. F. Valeev,
    F. A. Evangelista, J. M. Turney, T. D. Crawford, and C. D. Sherrill,
    J. Chem. Theory Comput. 13(7) pp 3185--3197 (2017).
    (doi: 10.1021/acs.jctc.7b00174)


                         Additional Contributions by
    P. Kraus, H. Kruse, M. H. Lechner, M. C. Schieber, and R. A. Shaw

    -----------------------------------------------------------------------


    Psi4 started on: Tuesday, 15 January 2019 03:15PM

    Process ID: 855
    Host:       adabbott
    PSIDATADIR: /home/adabbott/anaconda3/envs/mlchem/share/psi4
    Memory:     500.0 MiB
    Threads:    1
    
  ==> Input File <==

--------------------------------------------------------------------------
# density fitted hartree fock 
molecule h2o {
0 1
H 0.0000000000 0.0000000000 1.0250000000
H 0.0000000000 0.8118988160 -0.4687500000
O 0.0000000000 0.0000000000 0.0000000000
}

set basis 6-31g
energy('hf')

--------------------------------------------------------------------------

*** tstart() called on adabbott
*** at Tue Jan 15 15:15:19 2019

   => Loading Basis Set <=

    Name: 6-31G
    Role: ORBITAL
    Keyword: BASIS
    atoms 1-2 entry H          line    26 file /home/adabbott/anaconda3/envs/mlchem/share/psi4/basis/6-31g.gbs 
    atoms 3   entry O          line   117 file /home/adabbott/anaconda3/envs/mlchem/share/psi4/basis/6-31g.gbs 


         ---------------------------------------------------------
                                   SCF
            by Justin Turney, Rob Parrish, Andy Simmonett
                             and Daniel Smith
                              RHF Reference
                        1 Threads,    500 MiB Core
         ---------------------------------------------------------

  ==> Geometry <==

    Molecular point group: cs
    Full point group: Cs

    Geometry (in Angstrom), charge = 0, multiplicity = 1:

       Center              X                  Y                   Z               Mass       
    ------------   -----------------  -----------------  -----------------  -----------------
         H            0.045431776551    -0.993873675871     0.000000000000     1.007825032070
         H           -0.766467039449     0.499876324129     0.000000000000     1.007825032070
         O            0.045431776551     0.031126324129     0.000000000000    15.994914619560

  Running in cs symmetry.

  Rotational constants: A =     39.47890  B =     11.52263  C =      8.91935 [cm^-1]
  Rotational constants: A = 1183547.70351  B = 345439.66135  C = 267395.48494 [MHz]
  Nuclear repulsion =    8.957064562315395

  Charge       = 0
  Multiplicity = 1
  Electrons    = 10
  Nalpha       = 5
  Nbeta        = 5

  ==> Algorithm <==

  SCF Algorithm Type is DF.
  DIIS enabled.
  MOM disabled.
  Fractional occupation disabled.
  Guess Type is SAD.
  Energy threshold   = 1.00e-06
  Density threshold  = 1.00e-06
  Integral threshold = 0.00e+00

  ==> Primary Basis <==

  Basis Set: 6-31G
    Blend: 6-31G
    Number of shells: 9
    Number of basis function: 13
    Number of Cartesian functions: 13
    Spherical Harmonics?: false
    Max angular momentum: 1

   => Loading Basis Set <=

    Name: (6-31G AUX)
    Role: JKFIT
    Keyword: DF_BASIS_SCF
    atoms 1-2 entry H          line    51 file /home/adabbott/anaconda3/envs/mlchem/share/psi4/basis/cc-pvdz-jkfit.gbs 
    atoms 3   entry O          line   221 file /home/adabbott/anaconda3/envs/mlchem/share/psi4/basis/cc-pvdz-jkfit.gbs 

  ==> Pre-Iterations <==

   -------------------------------------------------------
    Irrep   Nso     Nmo     Nalpha   Nbeta   Ndocc  Nsocc
   -------------------------------------------------------
     A'        11      11       0       0       0       0
     A"         2       2       0       0       0       0
   -------------------------------------------------------
    Total      13      13       5       5       5       0
   -------------------------------------------------------

  ==> Integral Setup <==

  ==> DiskDFJK: Density-Fitted J/K Matrices <==

    J tasked:                  Yes
    K tasked:                  Yes
    wK tasked:                  No
    OpenMP threads:              1
    Integrals threads:           1
    Memory (MB):               375
    Algorithm:                Core
    Integral Cache:           NONE
    Schwarz Cutoff:          1E-12
    Fitting Condition:       1E-12

   => Auxiliary Basis Set <=

  Basis Set: (6-31G AUX)
    Blend: CC-PVDZ-JKFIT
    Number of shells: 42
    Number of basis function: 131
    Number of Cartesian functions: 131
    Spherical Harmonics?: false
    Max angular momentum: 3

  Minimum eigenvalue in the overlap matrix is 7.3969733669E-02.
  Using Symmetric Orthogonalization.

  SCF Guess: Superposition of Atomic Densities via on-the-fly atomic UHF.

  ==> Iterations <==

                           Total Energy        Delta E     RMS |[F,P]|

   @DF-RHF iter   0:   -75.97054242596515   -7.59705e+01   1.40241e-01 
   @DF-RHF iter   1:   -75.94101994205005    2.95225e-02   2.45782e-02 
   @DF-RHF iter   2:   -75.96948171593516   -2.84618e-02   1.28108e-02 DIIS
   @DF-RHF iter   3:   -75.97705264598486   -7.57093e-03   2.12176e-03 DIIS
   @DF-RHF iter   4:   -75.97758067663736   -5.28031e-04   4.78716e-04 DIIS
   @DF-RHF iter   5:   -75.97761949869860   -3.88221e-05   5.81613e-05 DIIS
   @DF-RHF iter   6:   -75.97762023425528   -7.35557e-07   1.38649e-05 DIIS
   @DF-RHF iter   7:   -75.97762027418493   -3.99296e-08   2.23436e-06 DIIS
   @DF-RHF iter   8:   -75.97762027514413   -9.59204e-10   4.18453e-07 DIIS

  ==> Post-Iterations <==

    Orbital Energies [Eh]
    ---------------------

    Doubly Occupied:                                                      

       1Ap   -20.551747     2Ap    -1.329205     3Ap    -0.719366  
       4Ap    -0.527556     1App   -0.491602  

    Virtual:                                                              

       5Ap     0.196385     6Ap     0.297256     7Ap     1.056277  
       8Ap     1.162629     2App    1.171251     9Ap     1.208623  
      10Ap     1.400618    11Ap     1.655036  

    Final Occupation by Irrep:
             Ap   App 
    DOCC [     4,    1 ]

  Energy converged.

  @DF-RHF Final Energy:   -75.97762027514413

   => Energetics <=

    Nuclear Repulsion Energy =              8.9570645623153951
    One-Electron Energy =                -122.6304142632966574
    Two-Electron Energy =                  37.6957294258371363
    Total Energy =                        -75.9776202751441190



Properties will be evaluated at   0.000000,   0.000000,   0.000000 [a0]

Properties computed using the SCF density matrix

  Nuclear Dipole Moment: [e a0]
     X:    -0.6757      Y:    -0.4630      Z:     0.0000

  Electronic Dipole Moment: [e a0]
     X:    -0.1062      Y:    -0.0257      Z:     0.0000

  Dipole Moment: [e a0]
     X:    -0.7819      Y:    -0.4887      Z:     0.0000     Total:     0.9220

  Dipole Moment: [D]
     X:    -1.9874      Y:    -1.2420      Z:     0.0000     Total:     2.3436


*** tstop() called on adabbott at Tue Jan 15 15:15:20 2019
Module time:
	user time   =       0.19 seconds =       0.00 minutes
	system time =       0.01 seconds =       0.00 minutes
	total time  =          1 seconds =       0.02 minutes
Total time:
	user time   =       0.19 seconds =       0.00 minutes
	system time =       0.01 seconds =       0.00 minutes
	total time  =          1 seconds =       0.02 minutes

    Psi4 stopped on: Tuesday, 15 January 2019 03:15PM
    Psi4 wall time for execution: 0:00:00.21

*** Psi4 exiting successfully. Buy a developer a beer!
