
    -----------------------------------------------------------------------
          Psi4: An Open-Source Ab Initio Electronic Structure Package
                               Psi4 1.3.1 release

                         Git: Rev {HEAD} 2ce1c29 


    R. M. Parrish, L. A. Burns, D. G. A. Smith, A. C. Simmonett,
    A. E. DePrince III, E. G. Hohenstein, U. Bozkaya, A. Yu. Sokolov,
    R. Di Remigio, R. M. Richard, J. F. Gonthier, A. M. James,
    H. R. McAlexander, A. Kumar, M. Saitow, X. Wang, B. P. Pritchard,
    P. Verma, H. F. Schaefer III, K. Patkowski, R. A. King, E. F. Valeev,
    F. A. Evangelista, J. M. Turney, T. D. Crawford, and C. D. Sherrill,
    J. Chem. Theory Comput. 13(7) pp 3185--3197 (2017).
    (doi: 10.1021/acs.jctc.7b00174)


                         Additional Contributions by
    P. Kraus, H. Kruse, M. H. Lechner, M. C. Schieber, R. A. Shaw,
    A. Alenaizan, R. Galvelis, Z. L. Glick, S. Lehtola, and J. P. Misiewicz

    -----------------------------------------------------------------------


    Psi4 started on: Monday, 08 July 2019 02:25PM

    Process ID: 5927
    Host:       adabbott
    PSIDATADIR: /home/adabbott/anaconda3/envs/peslearn/share/psi4
    Memory:     500.0 MiB
    Threads:    1
    
  ==> Input File <==

--------------------------------------------------------------------------
# density fitted hartree fock 
molecule h2o {
0 1
H 0.0000000000 0.0000000000 1.1125000000
H 0.0000000000 0.9294795575 -0.1223683052
O 0.0000000000 0.0000000000 0.0000000000
}

set basis 6-31g
energy('hf')

--------------------------------------------------------------------------

*** tstart() called on adabbott
*** at Mon Jul  8 14:25:17 2019

   => Loading Basis Set <=

    Name: 6-31G
    Role: ORBITAL
    Keyword: BASIS
    atoms 1-2 entry H          line    26 file /home/adabbott/anaconda3/envs/peslearn/share/psi4/basis/6-31g.gbs 
    atoms 3   entry O          line   117 file /home/adabbott/anaconda3/envs/peslearn/share/psi4/basis/6-31g.gbs 


         ---------------------------------------------------------
                                   SCF
               by Justin Turney, Rob Parrish, Andy Simmonett
                          and Daniel G. A. Smith
                              RHF Reference
                        1 Threads,    500 MiB Core
         ---------------------------------------------------------

  ==> Geometry <==

    Molecular point group: cs
    Full point group: Cs

    Geometry (in Angstrom), charge = 0, multiplicity = 1:

       Center              X                  Y                   Z               Mass       
    ------------   -----------------  -----------------  -----------------  -----------------
         H            0.052011293451    -1.057094768419     0.000000000000     1.007825032230
         H           -0.877468264049     0.177773536781     0.000000000000     1.007825032230
         O            0.052011293451     0.055405231581     0.000000000000    15.994914619570

  Running in cs symmetry.

  Rotational constants: A =     22.18237  B =     13.28252  C =      8.30787 [cm^-1]
  Rotational constants: A = 665010.68080  B = 398199.92574  C = 249063.73401 [MHz]
  Nuclear repulsion =    8.663344754070287

  Charge       = 0
  Multiplicity = 1
  Electrons    = 10
  Nalpha       = 5
  Nbeta        = 5

  ==> Algorithm <==

  SCF Algorithm Type is DF.
  DIIS enabled.
  MOM disabled.
  Fractional occupation disabled.
  Guess Type is SAD.
  Energy threshold   = 1.00e-06
  Density threshold  = 1.00e-06
  Integral threshold = 0.00e+00

  ==> Primary Basis <==

  Basis Set: 6-31G
    Blend: 6-31G
    Number of shells: 9
    Number of basis function: 13
    Number of Cartesian functions: 13
    Spherical Harmonics?: false
    Max angular momentum: 1

   => Loading Basis Set <=

    Name: (6-31G AUX)
    Role: JKFIT
    Keyword: DF_BASIS_SCF
    atoms 1-2 entry H          line    51 file /home/adabbott/anaconda3/envs/peslearn/share/psi4/basis/cc-pvdz-jkfit.gbs 
    atoms 3   entry O          line   221 file /home/adabbott/anaconda3/envs/peslearn/share/psi4/basis/cc-pvdz-jkfit.gbs 

  ==> Pre-Iterations <==

   -------------------------------------------------------
    Irrep   Nso     Nmo     Nalpha   Nbeta   Ndocc  Nsocc
   -------------------------------------------------------
     A'        11      11       0       0       0       0
     A"         2       2       0       0       0       0
   -------------------------------------------------------
    Total      13      13       5       5       5       0
   -------------------------------------------------------

  ==> Integral Setup <==

  DFHelper Memory: AOs need 0.000 GiB; user supplied 0.366 GiB. Using in-core AOs.

  ==> MemDFJK: Density-Fitted J/K Matrices <==

    J tasked:                   Yes
    K tasked:                   Yes
    wK tasked:                   No
    OpenMP threads:               1
    Memory [MiB]:               375
    Algorithm:                 Core
    Schwarz Cutoff:           1E-12
    Mask sparsity (%):       0.0000
    Fitting Condition:        1E-10

   => Auxiliary Basis Set <=

  Basis Set: (6-31G AUX)
    Blend: CC-PVDZ-JKFIT
    Number of shells: 42
    Number of basis function: 131
    Number of Cartesian functions: 131
    Spherical Harmonics?: false
    Max angular momentum: 3

  Minimum eigenvalue in the overlap matrix is 7.2112741504E-02.
  Using Symmetric Orthogonalization.

  SCF Guess: Superposition of Atomic Densities via on-the-fly atomic UHF.

  ==> Iterations <==

                           Total Energy        Delta E     RMS |[F,P]|

   @DF-RHF iter SAD:   -75.42810654890441   -7.54281e+01   0.00000e+00 
   @DF-RHF iter   1:   -75.87907087475385   -4.50964e-01   3.68916e-02 DIIS
   @DF-RHF iter   2:   -75.93729729629339   -5.82264e-02   2.39015e-02 DIIS
   @DF-RHF iter   3:   -75.96208016369511   -2.47829e-02   2.00655e-03 DIIS
   @DF-RHF iter   4:   -75.96258641931252   -5.06256e-04   4.52608e-04 DIIS
   @DF-RHF iter   5:   -75.96261029291975   -2.38736e-05   5.58386e-05 DIIS
   @DF-RHF iter   6:   -75.96261080127994   -5.08360e-07   1.02077e-05 DIIS
   @DF-RHF iter   7:   -75.96261081830701   -1.70271e-08   2.12404e-06 DIIS
   @DF-RHF iter   8:   -75.96261081916106   -8.54044e-10   4.92411e-07 DIIS
  Energy and wave function converged.


  ==> Post-Iterations <==

    Orbital Energies [Eh]
    ---------------------

    Doubly Occupied:                                                      

       1Ap   -20.578447     2Ap    -1.337440     3Ap    -0.666807  
       4Ap    -0.560603     1App   -0.502731  

    Virtual:                                                              

       5Ap     0.178011     6Ap     0.281539     7Ap     0.979134  
       2App    1.161343     8Ap     1.161451     9Ap     1.229423  
      10Ap     1.370286    11Ap     1.713232  

    Final Occupation by Irrep:
             Ap   App 
    DOCC [     4,    1 ]

  @DF-RHF Final Energy:   -75.96261081916106

   => Energetics <=

    Nuclear Repulsion Energy =              8.6633447540702875
    One-Electron Energy =                -121.9598475985012271
    Two-Electron Energy =                  37.3338920252698685
    Total Energy =                        -75.9626108191610570

Computation Completed


Properties will be evaluated at   0.000000,   0.000000,   0.000000 [a0]

Properties computed using the SCF density matrix

  Nuclear Dipole Moment: [e a0]
     X:    -0.7736      Y:    -0.8241      Z:     0.0000

  Electronic Dipole Moment: [e a0]
     X:    -0.0374      Y:     0.1049      Z:     0.0000

  Dipole Moment: [e a0]
     X:    -0.8110      Y:    -0.7192      Z:     0.0000     Total:     1.0840

  Dipole Moment: [D]
     X:    -2.0614      Y:    -1.8279      Z:     0.0000     Total:     2.7552


*** tstop() called on adabbott at Mon Jul  8 14:25:17 2019
Module time:
	user time   =       0.37 seconds =       0.01 minutes
	system time =       0.01 seconds =       0.00 minutes
	total time  =          0 seconds =       0.00 minutes
Total time:
	user time   =       0.37 seconds =       0.01 minutes
	system time =       0.01 seconds =       0.00 minutes
	total time  =          0 seconds =       0.00 minutes

    Psi4 stopped on: Monday, 08 July 2019 02:25PM
    Psi4 wall time for execution: 0:00:00.44

*** Psi4 exiting successfully. Buy a developer a beer!
