
    -----------------------------------------------------------------------
          Psi4: An Open-Source Ab Initio Electronic Structure Package
                               Psi4 1.3.1 release

                         Git: Rev {HEAD} 2ce1c29 


    R. M. Parrish, L. A. Burns, D. G. A. Smith, A. C. Simmonett,
    A. E. DePrince III, E. G. Hohenstein, U. Bozkaya, A. Yu. Sokolov,
    R. Di Remigio, R. M. Richard, J. F. Gonthier, A. M. James,
    H. R. McAlexander, A. Kumar, M. Saitow, X. Wang, B. P. Pritchard,
    P. Verma, H. F. Schaefer III, K. Patkowski, R. A. King, E. F. Valeev,
    F. A. Evangelista, J. M. Turney, T. D. Crawford, and C. D. Sherrill,
    J. Chem. Theory Comput. 13(7) pp 3185--3197 (2017).
    (doi: 10.1021/acs.jctc.7b00174)


                         Additional Contributions by
    P. Kraus, H. Kruse, M. H. Lechner, M. C. Schieber, R. A. Shaw,
    A. Alenaizan, R. Galvelis, Z. L. Glick, S. Lehtola, and J. P. Misiewicz

    -----------------------------------------------------------------------


    Psi4 started on: Monday, 08 July 2019 02:47PM

    Process ID: 7223
    Host:       adabbott
    PSIDATADIR: /home/adabbott/anaconda3/envs/peslearn/share/psi4
    Memory:     500.0 MiB
    Threads:    1
    
  ==> Input File <==

--------------------------------------------------------------------------
# density fitted hartree fock 
molecule h2o {
0 1
H 0.0000000000 0.0000000000 0.9500000000
H 0.0000000000 0.8899477436 -0.1341380396
O 0.0000000000 0.0000000000 0.0000000000
}

set basis 6-31g
energy('hf')

--------------------------------------------------------------------------

*** tstart() called on adabbott
*** at Mon Jul  8 14:47:54 2019

   => Loading Basis Set <=

    Name: 6-31G
    Role: ORBITAL
    Keyword: BASIS
    atoms 1-2 entry H          line    26 file /home/adabbott/anaconda3/envs/peslearn/share/psi4/basis/6-31g.gbs 
    atoms 3   entry O          line   117 file /home/adabbott/anaconda3/envs/peslearn/share/psi4/basis/6-31g.gbs 


         ---------------------------------------------------------
                                   SCF
               by Justin Turney, Rob Parrish, Andy Simmonett
                          and Daniel G. A. Smith
                              RHF Reference
                        1 Threads,    500 MiB Core
         ---------------------------------------------------------

  ==> Geometry <==

    Molecular point group: cs
    Full point group: Cs

    Geometry (in Angstrom), charge = 0, multiplicity = 1:

       Center              X                  Y                   Z               Mass       
    ------------   -----------------  -----------------  -----------------  -----------------
         H            0.049799194479    -0.904346456041     0.000000000000     1.007825032230
         H           -0.840148549121     0.179791583559     0.000000000000     1.007825032230
         O            0.049799194479     0.045653543959     0.000000000000    15.994914619570

  Running in cs symmetry.

  Rotational constants: A =     26.06636  B =     16.90875  C =     10.25593 [cm^-1]
  Rotational constants: A = 781449.92494  B = 506911.49870  C = 307464.92820 [MHz]
  Nuclear repulsion =    9.537302383135582

  Charge       = 0
  Multiplicity = 1
  Electrons    = 10
  Nalpha       = 5
  Nbeta        = 5

  ==> Algorithm <==

  SCF Algorithm Type is DF.
  DIIS enabled.
  MOM disabled.
  Fractional occupation disabled.
  Guess Type is SAD.
  Energy threshold   = 1.00e-06
  Density threshold  = 1.00e-06
  Integral threshold = 0.00e+00

  ==> Primary Basis <==

  Basis Set: 6-31G
    Blend: 6-31G
    Number of shells: 9
    Number of basis function: 13
    Number of Cartesian functions: 13
    Spherical Harmonics?: false
    Max angular momentum: 1

   => Loading Basis Set <=

    Name: (6-31G AUX)
    Role: JKFIT
    Keyword: DF_BASIS_SCF
    atoms 1-2 entry H          line    51 file /home/adabbott/anaconda3/envs/peslearn/share/psi4/basis/cc-pvdz-jkfit.gbs 
    atoms 3   entry O          line   221 file /home/adabbott/anaconda3/envs/peslearn/share/psi4/basis/cc-pvdz-jkfit.gbs 

  ==> Pre-Iterations <==

   -------------------------------------------------------
    Irrep   Nso     Nmo     Nalpha   Nbeta   Ndocc  Nsocc
   -------------------------------------------------------
     A'        11      11       0       0       0       0
     A"         2       2       0       0       0       0
   -------------------------------------------------------
    Total      13      13       5       5       5       0
   -------------------------------------------------------

  ==> Integral Setup <==

  DFHelper Memory: AOs need 0.000 GiB; user supplied 0.366 GiB. Using in-core AOs.

  ==> MemDFJK: Density-Fitted J/K Matrices <==

    J tasked:                   Yes
    K tasked:                   Yes
    wK tasked:                   No
    OpenMP threads:               1
    Memory [MiB]:               375
    Algorithm:                 Core
    Schwarz Cutoff:           1E-12
    Mask sparsity (%):       0.0000
    Fitting Condition:        1E-10

   => Auxiliary Basis Set <=

  Basis Set: (6-31G AUX)
    Blend: CC-PVDZ-JKFIT
    Number of shells: 42
    Number of basis function: 131
    Number of Cartesian functions: 131
    Spherical Harmonics?: false
    Max angular momentum: 3

  Minimum eigenvalue in the overlap matrix is 6.1454949310E-02.
  Using Symmetric Orthogonalization.

  SCF Guess: Superposition of Atomic Densities via on-the-fly atomic UHF.

  ==> Iterations <==

                           Total Energy        Delta E     RMS |[F,P]|

   @DF-RHF iter SAD:   -75.57969651690406   -7.55797e+01   0.00000e+00 
   @DF-RHF iter   1:   -75.90123044317841   -3.21534e-01   3.68962e-02 DIIS
   @DF-RHF iter   2:   -75.95813655078567   -5.69061e-02   2.06304e-02 DIIS
   @DF-RHF iter   3:   -75.97634046857891   -1.82039e-02   1.68011e-03 DIIS
   @DF-RHF iter   4:   -75.97662244809612   -2.81980e-04   2.79084e-04 DIIS
   @DF-RHF iter   5:   -75.97663088433015   -8.43623e-06   4.11620e-05 DIIS
   @DF-RHF iter   6:   -75.97663112686321   -2.42533e-07   5.59488e-06 DIIS
   @DF-RHF iter   7:   -75.97663113095419   -4.09098e-09   9.41344e-07 DIIS
  Energy and wave function converged.


  ==> Post-Iterations <==

    Orbital Energies [Eh]
    ---------------------

    Doubly Occupied:                                                      

       1Ap   -20.557915     2Ap    -1.382536     3Ap    -0.717056  
       4Ap    -0.576919     1App   -0.506028  

    Virtual:                                                              

       5Ap     0.208067     6Ap     0.308054     7Ap     1.035328  
       2App    1.162330     8Ap     1.207254     9Ap     1.276588  
      10Ap     1.394826    11Ap     1.716062  

    Final Occupation by Irrep:
             Ap   App 
    DOCC [     4,    1 ]

  @DF-RHF Final Energy:   -75.97663113095419

   => Energetics <=

    Nuclear Repulsion Energy =              9.5373023831355823
    One-Electron Energy =                -123.5469609264516464
    Two-Electron Energy =                  38.0330274123618679
    Total Energy =                        -75.9766311309541891

Computation Completed


Properties will be evaluated at   0.000000,   0.000000,   0.000000 [a0]

Properties computed using the SCF density matrix

  Nuclear Dipole Moment: [e a0]
     X:    -0.7407      Y:    -0.6790      Z:     0.0000

  Electronic Dipole Moment: [e a0]
     X:    -0.0644      Y:    -0.0219      Z:     0.0000

  Dipole Moment: [e a0]
     X:    -0.8051      Y:    -0.7010      Z:     0.0000     Total:     1.0675

  Dipole Moment: [D]
     X:    -2.0464      Y:    -1.7817      Z:     0.0000     Total:     2.7133


*** tstop() called on adabbott at Mon Jul  8 14:47:55 2019
Module time:
	user time   =       0.33 seconds =       0.01 minutes
	system time =       0.01 seconds =       0.00 minutes
	total time  =          1 seconds =       0.02 minutes
Total time:
	user time   =       0.33 seconds =       0.01 minutes
	system time =       0.01 seconds =       0.00 minutes
	total time  =          1 seconds =       0.02 minutes

    Psi4 stopped on: Monday, 08 July 2019 02:47PM
    Psi4 wall time for execution: 0:00:00.35

*** Psi4 exiting successfully. Buy a developer a beer!
