
    -----------------------------------------------------------------------
          Psi4: An Open-Source Ab Initio Electronic Structure Package
                               Psi4 1.3.1 release

                         Git: Rev {HEAD} 2ce1c29 


    R. M. Parrish, L. A. Burns, D. G. A. Smith, A. C. Simmonett,
    A. E. DePrince III, E. G. Hohenstein, U. Bozkaya, A. Yu. Sokolov,
    R. Di Remigio, R. M. Richard, J. F. Gonthier, A. M. James,
    H. R. McAlexander, A. Kumar, M. Saitow, X. Wang, B. P. Pritchard,
    P. Verma, H. F. Schaefer III, K. Patkowski, R. A. King, E. F. Valeev,
    F. A. Evangelista, J. M. Turney, T. D. Crawford, and C. D. Sherrill,
    J. Chem. Theory Comput. 13(7) pp 3185--3197 (2017).
    (doi: 10.1021/acs.jctc.7b00174)


                         Additional Contributions by
    P. Kraus, H. Kruse, M. H. Lechner, M. C. Schieber, R. A. Shaw,
    A. Alenaizan, R. Galvelis, Z. L. Glick, S. Lehtola, and J. P. Misiewicz

    -----------------------------------------------------------------------


    Psi4 started on: Monday, 08 July 2019 02:47PM

    Process ID: 7144
    Host:       adabbott
    PSIDATADIR: /home/adabbott/anaconda3/envs/peslearn/share/psi4
    Memory:     500.0 MiB
    Threads:    1
    
  ==> Input File <==

--------------------------------------------------------------------------
# density fitted hartree fock 
molecule h2o {
0 1
H 0.0000000000 0.0000000000 1.2000000000
H 0.0000000000 0.8974834175 -0.0672570842
O 0.0000000000 0.0000000000 0.0000000000
}

set basis 6-31g
energy('hf')

--------------------------------------------------------------------------

*** tstart() called on adabbott
*** at Mon Jul  8 14:47:39 2019

   => Loading Basis Set <=

    Name: 6-31G
    Role: ORBITAL
    Keyword: BASIS
    atoms 1-2 entry H          line    26 file /home/adabbott/anaconda3/envs/peslearn/share/psi4/basis/6-31g.gbs 
    atoms 3   entry O          line   117 file /home/adabbott/anaconda3/envs/peslearn/share/psi4/basis/6-31g.gbs 


         ---------------------------------------------------------
                                   SCF
               by Justin Turney, Rob Parrish, Andy Simmonett
                          and Daniel G. A. Smith
                              RHF Reference
                        1 Threads,    500 MiB Core
         ---------------------------------------------------------

  ==> Geometry <==

    Molecular point group: cs
    Full point group: Cs

    Geometry (in Angstrom), charge = 0, multiplicity = 1:

       Center              X                  Y                   Z               Mass       
    ------------   -----------------  -----------------  -----------------  -----------------
         H            0.050220871474    -1.136614610055     0.000000000000     1.007825032230
         H           -0.847262546026     0.130642474145     0.000000000000     1.007825032230
         O            0.050220871474     0.063385389945     0.000000000000    15.994914619570

  Running in cs symmetry.

  Rotational constants: A =     22.64285  B =     11.99559  C =      7.84141 [cm^-1]
  Rotational constants: A = 678815.69158  B = 359618.71813  C = 235079.68011 [MHz]
  Nuclear repulsion =    8.572418338934012

  Charge       = 0
  Multiplicity = 1
  Electrons    = 10
  Nalpha       = 5
  Nbeta        = 5

  ==> Algorithm <==

  SCF Algorithm Type is DF.
  DIIS enabled.
  MOM disabled.
  Fractional occupation disabled.
  Guess Type is SAD.
  Energy threshold   = 1.00e-06
  Density threshold  = 1.00e-06
  Integral threshold = 0.00e+00

  ==> Primary Basis <==

  Basis Set: 6-31G
    Blend: 6-31G
    Number of shells: 9
    Number of basis function: 13
    Number of Cartesian functions: 13
    Spherical Harmonics?: false
    Max angular momentum: 1

   => Loading Basis Set <=

    Name: (6-31G AUX)
    Role: JKFIT
    Keyword: DF_BASIS_SCF
    atoms 1-2 entry H          line    51 file /home/adabbott/anaconda3/envs/peslearn/share/psi4/basis/cc-pvdz-jkfit.gbs 
    atoms 3   entry O          line   221 file /home/adabbott/anaconda3/envs/peslearn/share/psi4/basis/cc-pvdz-jkfit.gbs 

  ==> Pre-Iterations <==

   -------------------------------------------------------
    Irrep   Nso     Nmo     Nalpha   Nbeta   Ndocc  Nsocc
   -------------------------------------------------------
     A'        11      11       0       0       0       0
     A"         2       2       0       0       0       0
   -------------------------------------------------------
    Total      13      13       5       5       5       0
   -------------------------------------------------------

  ==> Integral Setup <==

  DFHelper Memory: AOs need 0.000 GiB; user supplied 0.366 GiB. Using in-core AOs.

  ==> MemDFJK: Density-Fitted J/K Matrices <==

    J tasked:                   Yes
    K tasked:                   Yes
    wK tasked:                   No
    OpenMP threads:               1
    Memory [MiB]:               375
    Algorithm:                 Core
    Schwarz Cutoff:           1E-12
    Mask sparsity (%):       0.0000
    Fitting Condition:        1E-10

   => Auxiliary Basis Set <=

  Basis Set: (6-31G AUX)
    Blend: CC-PVDZ-JKFIT
    Number of shells: 42
    Number of basis function: 131
    Number of Cartesian functions: 131
    Spherical Harmonics?: false
    Max angular momentum: 3

  Minimum eigenvalue in the overlap matrix is 6.9294972509E-02.
  Using Symmetric Orthogonalization.

  SCF Guess: Superposition of Atomic Densities via on-the-fly atomic UHF.

  ==> Iterations <==

                           Total Energy        Delta E     RMS |[F,P]|

   @DF-RHF iter SAD:   -75.39425962384627   -7.53943e+01   0.00000e+00 
   @DF-RHF iter   1:   -75.84601297866250   -4.51753e-01   3.81148e-02 DIIS
   @DF-RHF iter   2:   -75.90868344085015   -6.26705e-02   2.60989e-02 DIIS
   @DF-RHF iter   3:   -75.93832234969406   -2.96389e-02   2.31171e-03 DIIS
   @DF-RHF iter   4:   -75.93902889643562   -7.06547e-04   5.68371e-04 DIIS
   @DF-RHF iter   5:   -75.93906820860911   -3.93122e-05   6.68879e-05 DIIS
   @DF-RHF iter   6:   -75.93906898224753   -7.73638e-07   1.20793e-05 DIIS
   @DF-RHF iter   7:   -75.93906900553239   -2.32849e-08   2.39703e-06 DIIS
   @DF-RHF iter   8:   -75.93906900660063   -1.06824e-09   6.00241e-07 DIIS
  Energy and wave function converged.


  ==> Post-Iterations <==

    Orbital Energies [Eh]
    ---------------------

    Doubly Occupied:                                                      

       1Ap   -20.584169     2Ap    -1.341945     3Ap    -0.659448  
       4Ap    -0.554810     1App   -0.504933  

    Virtual:                                                              

       5Ap     0.157181     6Ap     0.280210     7Ap     0.944621  
       2App    1.159722     8Ap     1.186483     9Ap     1.229504  
      10Ap     1.384876    11Ap     1.710762  

    Final Occupation by Irrep:
             Ap   App 
    DOCC [     4,    1 ]

  @DF-RHF Final Energy:   -75.93906900660063

   => Energetics <=

    Nuclear Repulsion Energy =              8.5724183389340123
    One-Electron Energy =                -121.7323572026983527
    Two-Electron Energy =                  37.2208698571637129
    Total Energy =                        -75.9390690066006186

Computation Completed


Properties will be evaluated at   0.000000,   0.000000,   0.000000 [a0]

Properties computed using the SCF density matrix

  Nuclear Dipole Moment: [e a0]
     X:    -0.7470      Y:    -0.9428      Z:     0.0000

  Electronic Dipole Moment: [e a0]
     X:    -0.0611      Y:     0.2002      Z:     0.0000

  Dipole Moment: [e a0]
     X:    -0.8080      Y:    -0.7426      Z:     0.0000     Total:     1.0974

  Dipole Moment: [D]
     X:    -2.0538      Y:    -1.8874      Z:     0.0000     Total:     2.7893


*** tstop() called on adabbott at Mon Jul  8 14:47:39 2019
Module time:
	user time   =       0.33 seconds =       0.01 minutes
	system time =       0.00 seconds =       0.00 minutes
	total time  =          0 seconds =       0.00 minutes
Total time:
	user time   =       0.33 seconds =       0.01 minutes
	system time =       0.00 seconds =       0.00 minutes
	total time  =          0 seconds =       0.00 minutes

    Psi4 stopped on: Monday, 08 July 2019 02:47PM
    Psi4 wall time for execution: 0:00:00.35

*** Psi4 exiting successfully. Buy a developer a beer!
