
    -----------------------------------------------------------------------
          Psi4: An Open-Source Ab Initio Electronic Structure Package
                               Psi4 1.3.1 release

                         Git: Rev {HEAD} 2ce1c29 


    R. M. Parrish, L. A. Burns, D. G. A. Smith, A. C. Simmonett,
    A. E. DePrince III, E. G. Hohenstein, U. Bozkaya, A. Yu. Sokolov,
    R. Di Remigio, R. M. Richard, J. F. Gonthier, A. M. James,
    H. R. McAlexander, A. Kumar, M. Saitow, X. Wang, B. P. Pritchard,
    P. Verma, H. F. Schaefer III, K. Patkowski, R. A. King, E. F. Valeev,
    F. A. Evangelista, J. M. Turney, T. D. Crawford, and C. D. Sherrill,
    J. Chem. Theory Comput. 13(7) pp 3185--3197 (2017).
    (doi: 10.1021/acs.jctc.7b00174)


                         Additional Contributions by
    P. Kraus, H. Kruse, M. H. Lechner, M. C. Schieber, R. A. Shaw,
    A. Alenaizan, R. Galvelis, Z. L. Glick, S. Lehtola, and J. P. Misiewicz

    -----------------------------------------------------------------------


    Psi4 started on: Monday, 15 April 2019 12:53PM

    Process ID: 19656
    Host:       adabbott
    PSIDATADIR: /home/adabbott/anaconda3/envs/trial4/share/psi4
    Memory:     500.0 MiB
    Threads:    1
    
  ==> Input File <==

--------------------------------------------------------------------------
# density fitted hartree fock 
molecule h2o {
0 1
H 0.0000000000 0.0000000000 1.2000000000
H 0.0000000000 0.8118988160 -0.4687500000
O 0.0000000000 0.0000000000 0.0000000000
}

set basis 6-31g
energy('hf')

--------------------------------------------------------------------------

*** tstart() called on adabbott
*** at Mon Apr 15 12:53:52 2019

   => Loading Basis Set <=

    Name: 6-31G
    Role: ORBITAL
    Keyword: BASIS
    atoms 1-2 entry H          line    26 file /home/adabbott/anaconda3/envs/trial4/share/psi4/basis/6-31g.gbs 
    atoms 3   entry O          line   117 file /home/adabbott/anaconda3/envs/trial4/share/psi4/basis/6-31g.gbs 


         ---------------------------------------------------------
                                   SCF
               by Justin Turney, Rob Parrish, Andy Simmonett
                          and Daniel G. A. Smith
                              RHF Reference
                        1 Threads,    500 MiB Core
         ---------------------------------------------------------

  ==> Geometry <==

    Molecular point group: cs
    Full point group: Cs

    Geometry (in Angstrom), charge = 0, multiplicity = 1:

       Center              X                  Y                   Z               Mass       
    ------------   -----------------  -----------------  -----------------  -----------------
         H            0.045431776558    -1.159081124454     0.000000000000     1.007825032230
         H           -0.766467039442     0.509668875546     0.000000000000     1.007825032230
         O            0.045431776558     0.040918875546     0.000000000000    15.994914619570

  Running in cs symmetry.

  Rotational constants: A =     35.27887  B =      9.40778  C =      7.42718 [cm^-1]
  Rotational constants: A = 1057633.91833  B = 282038.13960  C = 222661.28560 [MHz]
  Nuclear repulsion =    8.328644978952868

  Charge       = 0
  Multiplicity = 1
  Electrons    = 10
  Nalpha       = 5
  Nbeta        = 5

  ==> Algorithm <==

  SCF Algorithm Type is DF.
  DIIS enabled.
  MOM disabled.
  Fractional occupation disabled.
  Guess Type is SAD.
  Energy threshold   = 1.00e-06
  Density threshold  = 1.00e-06
  Integral threshold = 0.00e+00

  ==> Primary Basis <==

  Basis Set: 6-31G
    Blend: 6-31G
    Number of shells: 9
    Number of basis function: 13
    Number of Cartesian functions: 13
    Spherical Harmonics?: false
    Max angular momentum: 1

   => Loading Basis Set <=

    Name: (6-31G AUX)
    Role: JKFIT
    Keyword: DF_BASIS_SCF
    atoms 1-2 entry H          line    51 file /home/adabbott/anaconda3/envs/trial4/share/psi4/basis/cc-pvdz-jkfit.gbs 
    atoms 3   entry O          line   221 file /home/adabbott/anaconda3/envs/trial4/share/psi4/basis/cc-pvdz-jkfit.gbs 

  ==> Pre-Iterations <==

   -------------------------------------------------------
    Irrep   Nso     Nmo     Nalpha   Nbeta   Ndocc  Nsocc
   -------------------------------------------------------
     A'        11      11       0       0       0       0
     A"         2       2       0       0       0       0
   -------------------------------------------------------
    Total      13      13       5       5       5       0
   -------------------------------------------------------

  ==> Integral Setup <==

  DFHelper Memory: AOs need 0.000 GiB; user supplied 0.366 GiB. Using in-core AOs.

  ==> MemDFJK: Density-Fitted J/K Matrices <==

    J tasked:                   Yes
    K tasked:                   Yes
    wK tasked:                   No
    OpenMP threads:               1
    Memory [MiB]:               375
    Algorithm:                 Core
    Schwarz Cutoff:           1E-12
    Mask sparsity (%):       0.0000
    Fitting Condition:        1E-10

   => Auxiliary Basis Set <=

  Basis Set: (6-31G AUX)
    Blend: CC-PVDZ-JKFIT
    Number of shells: 42
    Number of basis function: 131
    Number of Cartesian functions: 131
    Spherical Harmonics?: false
    Max angular momentum: 3

  Minimum eigenvalue in the overlap matrix is 7.7973659900E-02.
  Using Symmetric Orthogonalization.

  SCF Guess: Superposition of Atomic Densities via on-the-fly atomic UHF.

  ==> Iterations <==

                           Total Energy        Delta E     RMS |[F,P]|

   @DF-RHF iter SAD:   -75.34552267213100   -7.53455e+01   0.00000e+00 
   @DF-RHF iter   1:   -75.85916092974223   -5.13638e-01   3.70918e-02 DIIS
   @DF-RHF iter   2:   -75.91405487680726   -5.48939e-02   2.47638e-02 DIIS
   @DF-RHF iter   3:   -75.94084043129914   -2.67856e-02   2.21575e-03 DIIS
   @DF-RHF iter   4:   -75.94156228414630   -7.21853e-04   5.68414e-04 DIIS
   @DF-RHF iter   5:   -75.94161195032115   -4.96662e-05   1.02840e-04 DIIS
   @DF-RHF iter   6:   -75.94161446400430   -2.51368e-06   3.28235e-05 DIIS
   @DF-RHF iter   7:   -75.94161473565599   -2.71652e-07   4.47639e-06 DIIS
   @DF-RHF iter   8:   -75.94161473973864   -4.08265e-09   7.67661e-07 DIIS
  Energy and wave function converged.


  ==> Post-Iterations <==

    Orbital Energies [Eh]
    ---------------------

    Doubly Occupied:                                                      

       1Ap   -20.564770     2Ap    -1.303458     3Ap    -0.674448  
       4Ap    -0.511881     1App   -0.487691  

    Virtual:                                                              

       5Ap     0.154857     6Ap     0.282417     7Ap     0.962313  
       8Ap     1.160033     2App    1.172355     9Ap     1.218760  
      10Ap     1.412655    11Ap     1.638609  

    Final Occupation by Irrep:
             Ap   App 
    DOCC [     4,    1 ]

  @DF-RHF Final Energy:   -75.94161473973864

   => Energetics <=

    Nuclear Repulsion Energy =              8.3286449789528678
    One-Electron Energy =                -121.4560099597534588
    Two-Electron Energy =                  37.1857502410619603
    Total Energy =                        -75.9416147397386396

Computation Completed


Properties will be evaluated at   0.000000,   0.000000,   0.000000 [a0]

Properties computed using the SCF density matrix

  Nuclear Dipole Moment: [e a0]
     X:    -0.6757      Y:    -0.6086      Z:     0.0000

  Electronic Dipole Moment: [e a0]
     X:    -0.0897      Y:     0.0779      Z:     0.0000

  Dipole Moment: [e a0]
     X:    -0.7655      Y:    -0.5307      Z:     0.0000     Total:     0.9314

  Dipole Moment: [D]
     X:    -1.9456      Y:    -1.3490      Z:     0.0000     Total:     2.3675


*** tstop() called on adabbott at Mon Apr 15 12:53:53 2019
Module time:
	user time   =       0.34 seconds =       0.01 minutes
	system time =       0.00 seconds =       0.00 minutes
	total time  =          1 seconds =       0.02 minutes
Total time:
	user time   =       0.34 seconds =       0.01 minutes
	system time =       0.00 seconds =       0.00 minutes
	total time  =          1 seconds =       0.02 minutes

    Psi4 stopped on: Monday, 15 April 2019 12:53PM
    Psi4 wall time for execution: 0:00:00.36

*** Psi4 exiting successfully. Buy a developer a beer!
