
    -----------------------------------------------------------------------
          Psi4: An Open-Source Ab Initio Electronic Structure Package
                               Psi4 1.3.1 release

                         Git: Rev {HEAD} 2ce1c29 


    R. M. Parrish, L. A. Burns, D. G. A. Smith, A. C. Simmonett,
    A. E. DePrince III, E. G. Hohenstein, U. Bozkaya, A. Yu. Sokolov,
    R. Di Remigio, R. M. Richard, J. F. Gonthier, A. M. James,
    H. R. McAlexander, A. Kumar, M. Saitow, X. Wang, B. P. Pritchard,
    P. Verma, H. F. Schaefer III, K. Patkowski, R. A. King, E. F. Valeev,
    F. A. Evangelista, J. M. Turney, T. D. Crawford, and C. D. Sherrill,
    J. Chem. Theory Comput. 13(7) pp 3185--3197 (2017).
    (doi: 10.1021/acs.jctc.7b00174)


                         Additional Contributions by
    P. Kraus, H. Kruse, M. H. Lechner, M. C. Schieber, R. A. Shaw,
    A. Alenaizan, R. Galvelis, Z. L. Glick, S. Lehtola, and J. P. Misiewicz

    -----------------------------------------------------------------------


    Psi4 started on: Monday, 08 July 2019 02:25PM

    Process ID: 5902
    Host:       adabbott
    PSIDATADIR: /home/adabbott/anaconda3/envs/peslearn/share/psi4
    Memory:     500.0 MiB
    Threads:    1
    
  ==> Input File <==

--------------------------------------------------------------------------
# density fitted hartree fock 
molecule h2o {
0 1
H 0.0000000000 0.0000000000 1.2000000000
H 0.0000000000 0.9055554621 -0.2426428548
O 0.0000000000 0.0000000000 0.0000000000
}

set basis 6-31g
energy('hf')

--------------------------------------------------------------------------

*** tstart() called on adabbott
*** at Mon Jul  8 14:25:11 2019

   => Loading Basis Set <=

    Name: 6-31G
    Role: ORBITAL
    Keyword: BASIS
    atoms 1-2 entry H          line    26 file /home/adabbott/anaconda3/envs/peslearn/share/psi4/basis/6-31g.gbs 
    atoms 3   entry O          line   117 file /home/adabbott/anaconda3/envs/peslearn/share/psi4/basis/6-31g.gbs 


         ---------------------------------------------------------
                                   SCF
               by Justin Turney, Rob Parrish, Andy Simmonett
                          and Daniel G. A. Smith
                              RHF Reference
                        1 Threads,    500 MiB Core
         ---------------------------------------------------------

  ==> Geometry <==

    Molecular point group: cs
    Full point group: Cs

    Geometry (in Angstrom), charge = 0, multiplicity = 1:

       Center              X                  Y                   Z               Mass       
    ------------   -----------------  -----------------  -----------------  -----------------
         H            0.050672562398    -1.146428748202     0.000000000000     1.007825032230
         H           -0.854882899702     0.296214106598     0.000000000000     1.007825032230
         O            0.050672562398     0.053571251798     0.000000000000    15.994914619570

  Running in cs symmetry.

  Rotational constants: A =     24.58505  B =     10.85186  C =      7.52869 [cm^-1]
  Rotational constants: A = 737041.38961  B = 325330.69555  C = 225704.52601 [MHz]
  Nuclear repulsion =    8.354170259347590

  Charge       = 0
  Multiplicity = 1
  Electrons    = 10
  Nalpha       = 5
  Nbeta        = 5

  ==> Algorithm <==

  SCF Algorithm Type is DF.
  DIIS enabled.
  MOM disabled.
  Fractional occupation disabled.
  Guess Type is SAD.
  Energy threshold   = 1.00e-06
  Density threshold  = 1.00e-06
  Integral threshold = 0.00e+00

  ==> Primary Basis <==

  Basis Set: 6-31G
    Blend: 6-31G
    Number of shells: 9
    Number of basis function: 13
    Number of Cartesian functions: 13
    Spherical Harmonics?: false
    Max angular momentum: 1

   => Loading Basis Set <=

    Name: (6-31G AUX)
    Role: JKFIT
    Keyword: DF_BASIS_SCF
    atoms 1-2 entry H          line    51 file /home/adabbott/anaconda3/envs/peslearn/share/psi4/basis/cc-pvdz-jkfit.gbs 
    atoms 3   entry O          line   221 file /home/adabbott/anaconda3/envs/peslearn/share/psi4/basis/cc-pvdz-jkfit.gbs 

  ==> Pre-Iterations <==

   -------------------------------------------------------
    Irrep   Nso     Nmo     Nalpha   Nbeta   Ndocc  Nsocc
   -------------------------------------------------------
     A'        11      11       0       0       0       0
     A"         2       2       0       0       0       0
   -------------------------------------------------------
    Total      13      13       5       5       5       0
   -------------------------------------------------------

  ==> Integral Setup <==

  DFHelper Memory: AOs need 0.000 GiB; user supplied 0.366 GiB. Using in-core AOs.

  ==> MemDFJK: Density-Fitted J/K Matrices <==

    J tasked:                   Yes
    K tasked:                   Yes
    wK tasked:                   No
    OpenMP threads:               1
    Memory [MiB]:               375
    Algorithm:                 Core
    Schwarz Cutoff:           1E-12
    Mask sparsity (%):       0.0000
    Fitting Condition:        1E-10

   => Auxiliary Basis Set <=

  Basis Set: (6-31G AUX)
    Blend: CC-PVDZ-JKFIT
    Number of shells: 42
    Number of basis function: 131
    Number of Cartesian functions: 131
    Spherical Harmonics?: false
    Max angular momentum: 3

  Minimum eigenvalue in the overlap matrix is 7.5794512784E-02.
  Using Symmetric Orthogonalization.

  SCF Guess: Superposition of Atomic Densities via on-the-fly atomic UHF.

  ==> Iterations <==

                           Total Energy        Delta E     RMS |[F,P]|

   @DF-RHF iter SAD:   -75.35656196939655   -7.53566e+01   0.00000e+00 
   @DF-RHF iter   1:   -75.85889099479694   -5.02329e-01   3.73267e-02 DIIS
   @DF-RHF iter   2:   -75.91728719705424   -5.83962e-02   2.55443e-02 DIIS
   @DF-RHF iter   3:   -75.94574847345515   -2.84613e-02   2.28577e-03 DIIS
   @DF-RHF iter   4:   -75.94645131330421   -7.02840e-04   5.47788e-04 DIIS
   @DF-RHF iter   5:   -75.94648897681279   -3.76635e-05   7.40204e-05 DIIS
   @DF-RHF iter   6:   -75.94649003629711   -1.05948e-06   2.00836e-05 DIIS
   @DF-RHF iter   7:   -75.94649012506154   -8.87644e-08   4.23467e-06 DIIS
   @DF-RHF iter   8:   -75.94649012913972   -4.07817e-09   8.16185e-07 DIIS
  Energy and wave function converged.


  ==> Post-Iterations <==

    Orbital Energies [Eh]
    ---------------------

    Doubly Occupied:                                                      

       1Ap   -20.579596     2Ap    -1.318434     3Ap    -0.660767  
       4Ap    -0.536953     1App   -0.497842  

    Virtual:                                                              

       5Ap     0.158379     6Ap     0.276336     7Ap     0.966434  
       8Ap     1.146944     2App    1.164390     9Ap     1.224108  
      10Ap     1.378316    11Ap     1.675459  

    Final Occupation by Irrep:
             Ap   App 
    DOCC [     4,    1 ]

  @DF-RHF Final Energy:   -75.94649012913972

   => Energetics <=

    Nuclear Repulsion Energy =              8.3541702593475904
    One-Electron Energy =                -121.4141215679564283
    Two-Electron Energy =                  37.1134611794691338
    Total Energy =                        -75.9464901291397041

Computation Completed


Properties will be evaluated at   0.000000,   0.000000,   0.000000 [a0]

Properties computed using the SCF density matrix

  Nuclear Dipole Moment: [e a0]
     X:    -0.7537      Y:    -0.7968      Z:     0.0000

  Electronic Dipole Moment: [e a0]
     X:    -0.0534      Y:     0.1462      Z:     0.0000

  Dipole Moment: [e a0]
     X:    -0.8071      Y:    -0.6506      Z:     0.0000     Total:     1.0367

  Dipole Moment: [D]
     X:    -2.0515      Y:    -1.6536      Z:     0.0000     Total:     2.6350


*** tstop() called on adabbott at Mon Jul  8 14:25:12 2019
Module time:
	user time   =       0.35 seconds =       0.01 minutes
	system time =       0.00 seconds =       0.00 minutes
	total time  =          1 seconds =       0.02 minutes
Total time:
	user time   =       0.35 seconds =       0.01 minutes
	system time =       0.00 seconds =       0.00 minutes
	total time  =          1 seconds =       0.02 minutes

    Psi4 stopped on: Monday, 08 July 2019 02:25PM
    Psi4 wall time for execution: 0:00:00.40

*** Psi4 exiting successfully. Buy a developer a beer!
