
    -----------------------------------------------------------------------
          Psi4: An Open-Source Ab Initio Electronic Structure Package
                               Psi4 1.3.1 release

                         Git: Rev {HEAD} 2ce1c29 


    R. M. Parrish, L. A. Burns, D. G. A. Smith, A. C. Simmonett,
    A. E. DePrince III, E. G. Hohenstein, U. Bozkaya, A. Yu. Sokolov,
    R. Di Remigio, R. M. Richard, J. F. Gonthier, A. M. James,
    H. R. McAlexander, A. Kumar, M. Saitow, X. Wang, B. P. Pritchard,
    P. Verma, H. F. Schaefer III, K. Patkowski, R. A. King, E. F. Valeev,
    F. A. Evangelista, J. M. Turney, T. D. Crawford, and C. D. Sherrill,
    J. Chem. Theory Comput. 13(7) pp 3185--3197 (2017).
    (doi: 10.1021/acs.jctc.7b00174)


                         Additional Contributions by
    P. Kraus, H. Kruse, M. H. Lechner, M. C. Schieber, R. A. Shaw,
    A. Alenaizan, R. Galvelis, Z. L. Glick, S. Lehtola, and J. P. Misiewicz

    -----------------------------------------------------------------------


    Psi4 started on: Monday, 08 July 2019 02:48PM

    Process ID: 7247
    Host:       adabbott
    PSIDATADIR: /home/adabbott/anaconda3/envs/peslearn/share/psi4
    Memory:     500.0 MiB
    Threads:    1
    
  ==> Input File <==

--------------------------------------------------------------------------
# density fitted hartree fock 
molecule h2o {
0 1
H 0.0000000000 0.0000000000 1.1000000000
H 0.0000000000 0.9972037972 -0.0747300936
O 0.0000000000 0.0000000000 0.0000000000
}

set basis 6-31g
energy('hf')

--------------------------------------------------------------------------

*** tstart() called on adabbott
*** at Mon Jul  8 14:48:00 2019

   => Loading Basis Set <=

    Name: 6-31G
    Role: ORBITAL
    Keyword: BASIS
    atoms 1-2 entry H          line    26 file /home/adabbott/anaconda3/envs/peslearn/share/psi4/basis/6-31g.gbs 
    atoms 3   entry O          line   117 file /home/adabbott/anaconda3/envs/peslearn/share/psi4/basis/6-31g.gbs 


         ---------------------------------------------------------
                                   SCF
               by Justin Turney, Rob Parrish, Andy Simmonett
                          and Daniel G. A. Smith
                              RHF Reference
                        1 Threads,    500 MiB Core
         ---------------------------------------------------------

  ==> Geometry <==

    Molecular point group: cs
    Full point group: Cs

    Geometry (in Angstrom), charge = 0, multiplicity = 1:

       Center              X                  Y                   Z               Mass       
    ------------   -----------------  -----------------  -----------------  -----------------
         H            0.055800968303    -1.042628524170     0.000000000000     1.007825032230
         H           -0.941402828897     0.132101569430     0.000000000000     1.007825032230
         O            0.055800968303     0.057371475830     0.000000000000    15.994914619570

  Running in cs symmetry.

  Rotational constants: A =     19.07728  B =     13.72456  C =      7.98209 [cm^-1]
  Rotational constants: A = 571922.49352  B = 411451.94983  C = 239297.07214 [MHz]
  Nuclear repulsion =    8.425397667175282

  Charge       = 0
  Multiplicity = 1
  Electrons    = 10
  Nalpha       = 5
  Nbeta        = 5

  ==> Algorithm <==

  SCF Algorithm Type is DF.
  DIIS enabled.
  MOM disabled.
  Fractional occupation disabled.
  Guess Type is SAD.
  Energy threshold   = 1.00e-06
  Density threshold  = 1.00e-06
  Integral threshold = 0.00e+00

  ==> Primary Basis <==

  Basis Set: 6-31G
    Blend: 6-31G
    Number of shells: 9
    Number of basis function: 13
    Number of Cartesian functions: 13
    Spherical Harmonics?: false
    Max angular momentum: 1

   => Loading Basis Set <=

    Name: (6-31G AUX)
    Role: JKFIT
    Keyword: DF_BASIS_SCF
    atoms 1-2 entry H          line    51 file /home/adabbott/anaconda3/envs/peslearn/share/psi4/basis/cc-pvdz-jkfit.gbs 
    atoms 3   entry O          line   221 file /home/adabbott/anaconda3/envs/peslearn/share/psi4/basis/cc-pvdz-jkfit.gbs 

  ==> Pre-Iterations <==

   -------------------------------------------------------
    Irrep   Nso     Nmo     Nalpha   Nbeta   Ndocc  Nsocc
   -------------------------------------------------------
     A'        11      11       0       0       0       0
     A"         2       2       0       0       0       0
   -------------------------------------------------------
    Total      13      13       5       5       5       0
   -------------------------------------------------------

  ==> Integral Setup <==

  DFHelper Memory: AOs need 0.000 GiB; user supplied 0.366 GiB. Using in-core AOs.

  ==> MemDFJK: Density-Fitted J/K Matrices <==

    J tasked:                   Yes
    K tasked:                   Yes
    wK tasked:                   No
    OpenMP threads:               1
    Memory [MiB]:               375
    Algorithm:                 Core
    Schwarz Cutoff:           1E-12
    Mask sparsity (%):       0.0000
    Fitting Condition:        1E-10

   => Auxiliary Basis Set <=

  Basis Set: (6-31G AUX)
    Blend: CC-PVDZ-JKFIT
    Number of shells: 42
    Number of basis function: 131
    Number of Cartesian functions: 131
    Spherical Harmonics?: false
    Max angular momentum: 3

  Minimum eigenvalue in the overlap matrix is 7.8058054673E-02.
  Using Symmetric Orthogonalization.

  SCF Guess: Superposition of Atomic Densities via on-the-fly atomic UHF.

  ==> Iterations <==

                           Total Energy        Delta E     RMS |[F,P]|

   @DF-RHF iter SAD:   -75.39525627506649   -7.53953e+01   0.00000e+00 
   @DF-RHF iter   1:   -75.87684290684805   -4.81587e-01   3.67078e-02 DIIS
   @DF-RHF iter   2:   -75.93473127755411   -5.78884e-02   2.46438e-02 DIIS
   @DF-RHF iter   3:   -75.96121237836091   -2.64811e-02   2.03476e-03 DIIS
   @DF-RHF iter   4:   -75.96171728690020   -5.04909e-04   4.52526e-04 DIIS
   @DF-RHF iter   5:   -75.96173944006983   -2.21532e-05   5.21166e-05 DIIS
   @DF-RHF iter   6:   -75.96173984368730   -4.03617e-07   8.18274e-06 DIIS
   @DF-RHF iter   7:   -75.96173985283826   -9.15097e-09   1.52391e-06 DIIS
   @DF-RHF iter   8:   -75.96173985323156   -3.93300e-10   3.76677e-07 DIIS
  Energy and wave function converged.


  ==> Post-Iterations <==

    Orbital Energies [Eh]
    ---------------------

    Doubly Occupied:                                                      

       1Ap   -20.586351     2Ap    -1.324829     3Ap    -0.647797  
       4Ap    -0.564707     1App   -0.503313  

    Virtual:                                                              

       5Ap     0.176074     6Ap     0.269066     7Ap     0.976106  
       8Ap     1.113756     2App    1.159774     9Ap     1.239959  
      10Ap     1.351183    11Ap     1.724114  

    Final Occupation by Irrep:
             Ap   App 
    DOCC [     4,    1 ]

  @DF-RHF Final Energy:   -75.96173985323156

   => Energetics <=

    Nuclear Repulsion Energy =              8.4253976671752824
    One-Electron Energy =                -121.5202748294361612
    Two-Electron Energy =                  37.1331373090293084
    Total Energy =                        -75.9617398532315633

Computation Completed


Properties will be evaluated at   0.000000,   0.000000,   0.000000 [a0]

Properties computed using the SCF density matrix

  Nuclear Dipole Moment: [e a0]
     X:    -0.8300      Y:    -0.8533      Z:     0.0000

  Electronic Dipole Moment: [e a0]
     X:     0.0173      Y:     0.1031      Z:     0.0000

  Dipole Moment: [e a0]
     X:    -0.8127      Y:    -0.7502      Z:     0.0000     Total:     1.1060

  Dipole Moment: [D]
     X:    -2.0656      Y:    -1.9069      Z:     0.0000     Total:     2.8112


*** tstop() called on adabbott at Mon Jul  8 14:48:00 2019
Module time:
	user time   =       0.33 seconds =       0.01 minutes
	system time =       0.01 seconds =       0.00 minutes
	total time  =          0 seconds =       0.00 minutes
Total time:
	user time   =       0.33 seconds =       0.01 minutes
	system time =       0.01 seconds =       0.00 minutes
	total time  =          0 seconds =       0.00 minutes

    Psi4 stopped on: Monday, 08 July 2019 02:48PM
    Psi4 wall time for execution: 0:00:00.35

*** Psi4 exiting successfully. Buy a developer a beer!
