
    -----------------------------------------------------------------------
          Psi4: An Open-Source Ab Initio Electronic Structure Package
                               Psi4 1.3.1 release

                         Git: Rev {HEAD} 2ce1c29 


    R. M. Parrish, L. A. Burns, D. G. A. Smith, A. C. Simmonett,
    A. E. DePrince III, E. G. Hohenstein, U. Bozkaya, A. Yu. Sokolov,
    R. Di Remigio, R. M. Richard, J. F. Gonthier, A. M. James,
    H. R. McAlexander, A. Kumar, M. Saitow, X. Wang, B. P. Pritchard,
    P. Verma, H. F. Schaefer III, K. Patkowski, R. A. King, E. F. Valeev,
    F. A. Evangelista, J. M. Turney, T. D. Crawford, and C. D. Sherrill,
    J. Chem. Theory Comput. 13(7) pp 3185--3197 (2017).
    (doi: 10.1021/acs.jctc.7b00174)


                         Additional Contributions by
    P. Kraus, H. Kruse, M. H. Lechner, M. C. Schieber, R. A. Shaw,
    A. Alenaizan, R. Galvelis, Z. L. Glick, S. Lehtola, and J. P. Misiewicz

    -----------------------------------------------------------------------


    Psi4 started on: Monday, 08 July 2019 02:47PM

    Process ID: 7210
    Host:       adabbott
    PSIDATADIR: /home/adabbott/anaconda3/envs/peslearn/share/psi4
    Memory:     500.0 MiB
    Threads:    1
    
  ==> Input File <==

--------------------------------------------------------------------------
# density fitted hartree fock 
molecule h2o {
0 1
H 0.0000000000 0.0000000000 1.1500000000
H 0.0000000000 0.9473436073 -0.0709935889
O 0.0000000000 0.0000000000 0.0000000000
}

set basis 6-31g
energy('hf')

--------------------------------------------------------------------------

*** tstart() called on adabbott
*** at Mon Jul  8 14:47:52 2019

   => Loading Basis Set <=

    Name: 6-31G
    Role: ORBITAL
    Keyword: BASIS
    atoms 1-2 entry H          line    26 file /home/adabbott/anaconda3/envs/peslearn/share/psi4/basis/6-31g.gbs 
    atoms 3   entry O          line   117 file /home/adabbott/anaconda3/envs/peslearn/share/psi4/basis/6-31g.gbs 


         ---------------------------------------------------------
                                   SCF
               by Justin Turney, Rob Parrish, Andy Simmonett
                          and Daniel G. A. Smith
                              RHF Reference
                        1 Threads,    500 MiB Core
         ---------------------------------------------------------

  ==> Geometry <==

    Molecular point group: cs
    Full point group: Cs

    Geometry (in Angstrom), charge = 0, multiplicity = 1:

       Center              X                  Y                   Z               Mass       
    ------------   -----------------  -----------------  -----------------  -----------------
         H            0.053010919886    -1.089621567112     0.000000000000     1.007825032230
         H           -0.894332687414     0.131372021788     0.000000000000     1.007825032230
         O            0.053010919886     0.060378432888     0.000000000000    15.994914619570

  Running in cs symmetry.

  Rotational constants: A =     20.57941  B =     12.89806  C =      7.92875 [cm^-1]
  Rotational constants: A = 616955.28234  B = 386674.10980  C = 237697.93556 [MHz]
  Nuclear repulsion =    8.479881054009601

  Charge       = 0
  Multiplicity = 1
  Electrons    = 10
  Nalpha       = 5
  Nbeta        = 5

  ==> Algorithm <==

  SCF Algorithm Type is DF.
  DIIS enabled.
  MOM disabled.
  Fractional occupation disabled.
  Guess Type is SAD.
  Energy threshold   = 1.00e-06
  Density threshold  = 1.00e-06
  Integral threshold = 0.00e+00

  ==> Primary Basis <==

  Basis Set: 6-31G
    Blend: 6-31G
    Number of shells: 9
    Number of basis function: 13
    Number of Cartesian functions: 13
    Spherical Harmonics?: false
    Max angular momentum: 1

   => Loading Basis Set <=

    Name: (6-31G AUX)
    Role: JKFIT
    Keyword: DF_BASIS_SCF
    atoms 1-2 entry H          line    51 file /home/adabbott/anaconda3/envs/peslearn/share/psi4/basis/cc-pvdz-jkfit.gbs 
    atoms 3   entry O          line   221 file /home/adabbott/anaconda3/envs/peslearn/share/psi4/basis/cc-pvdz-jkfit.gbs 

  ==> Pre-Iterations <==

   -------------------------------------------------------
    Irrep   Nso     Nmo     Nalpha   Nbeta   Ndocc  Nsocc
   -------------------------------------------------------
     A'        11      11       0       0       0       0
     A"         2       2       0       0       0       0
   -------------------------------------------------------
    Total      13      13       5       5       5       0
   -------------------------------------------------------

  ==> Integral Setup <==

  DFHelper Memory: AOs need 0.000 GiB; user supplied 0.366 GiB. Using in-core AOs.

  ==> MemDFJK: Density-Fitted J/K Matrices <==

    J tasked:                   Yes
    K tasked:                   Yes
    wK tasked:                   No
    OpenMP threads:               1
    Memory [MiB]:               375
    Algorithm:                 Core
    Schwarz Cutoff:           1E-12
    Mask sparsity (%):       0.0000
    Fitting Condition:        1E-10

   => Auxiliary Basis Set <=

  Basis Set: (6-31G AUX)
    Blend: CC-PVDZ-JKFIT
    Number of shells: 42
    Number of basis function: 131
    Number of Cartesian functions: 131
    Spherical Harmonics?: false
    Max angular momentum: 3

  Minimum eigenvalue in the overlap matrix is 7.4390647306E-02.
  Using Symmetric Orthogonalization.

  SCF Guess: Superposition of Atomic Densities via on-the-fly atomic UHF.

  ==> Iterations <==

                           Total Energy        Delta E     RMS |[F,P]|

   @DF-RHF iter SAD:   -75.39535759043261   -7.53954e+01   0.00000e+00 
   @DF-RHF iter   1:   -75.86574599724888   -4.70388e-01   3.72336e-02 DIIS
   @DF-RHF iter   2:   -75.92541197570267   -5.96660e-02   2.51860e-02 DIIS
   @DF-RHF iter   3:   -75.95304970081777   -2.76377e-02   2.13984e-03 DIIS
   @DF-RHF iter   4:   -75.95363071297940   -5.81012e-04   5.00486e-04 DIIS
   @DF-RHF iter   5:   -75.95365971126103   -2.89983e-05   5.96768e-05 DIIS
   @DF-RHF iter   6:   -75.95366029528323   -5.84022e-07   1.05345e-05 DIIS
   @DF-RHF iter   7:   -75.95366031247976   -1.71965e-08   1.97906e-06 DIIS
   @DF-RHF iter   8:   -75.95366031316264   -6.82888e-10   4.60757e-07 DIIS
  Energy and wave function converged.


  ==> Post-Iterations <==

    Orbital Energies [Eh]
    ---------------------

    Doubly Occupied:                                                      

       1Ap   -20.585511     2Ap    -1.331238     3Ap    -0.652559  
       4Ap    -0.560640     1App   -0.503924  

    Virtual:                                                              

       5Ap     0.168304     6Ap     0.273909     7Ap     0.960496  
       8Ap     1.147176     2App    1.159762     9Ap     1.234888  
      10Ap     1.362416    11Ap     1.718781  

    Final Occupation by Irrep:
             Ap   App 
    DOCC [     4,    1 ]

  @DF-RHF Final Energy:   -75.95366031316264

   => Energetics <=

    Nuclear Repulsion Energy =              8.4798810540096010
    One-Electron Energy =                -121.5993342420895829
    Two-Electron Energy =                  37.1657928749173436
    Total Energy =                        -75.9536603131626435

Computation Completed


Properties will be evaluated at   0.000000,   0.000000,   0.000000 [a0]

Properties computed using the SCF density matrix

  Nuclear Dipole Moment: [e a0]
     X:    -0.7885      Y:    -0.8980      Z:     0.0000

  Electronic Dipole Moment: [e a0]
     X:    -0.0231      Y:     0.1516      Z:     0.0000

  Dipole Moment: [e a0]
     X:    -0.8115      Y:    -0.7464      Z:     0.0000     Total:     1.1026

  Dipole Moment: [D]
     X:    -2.0627      Y:    -1.8972      Z:     0.0000     Total:     2.8025


*** tstop() called on adabbott at Mon Jul  8 14:47:53 2019
Module time:
	user time   =       0.34 seconds =       0.01 minutes
	system time =       0.00 seconds =       0.00 minutes
	total time  =          1 seconds =       0.02 minutes
Total time:
	user time   =       0.34 seconds =       0.01 minutes
	system time =       0.00 seconds =       0.00 minutes
	total time  =          1 seconds =       0.02 minutes

    Psi4 stopped on: Monday, 08 July 2019 02:47PM
    Psi4 wall time for execution: 0:00:00.35

*** Psi4 exiting successfully. Buy a developer a beer!
