
    -----------------------------------------------------------------------
          Psi4: An Open-Source Ab Initio Electronic Structure Package
                               Psi4 1.3.1 release

                         Git: Rev {HEAD} 2ce1c29 


    R. M. Parrish, L. A. Burns, D. G. A. Smith, A. C. Simmonett,
    A. E. DePrince III, E. G. Hohenstein, U. Bozkaya, A. Yu. Sokolov,
    R. Di Remigio, R. M. Richard, J. F. Gonthier, A. M. James,
    H. R. McAlexander, A. Kumar, M. Saitow, X. Wang, B. P. Pritchard,
    P. Verma, H. F. Schaefer III, K. Patkowski, R. A. King, E. F. Valeev,
    F. A. Evangelista, J. M. Turney, T. D. Crawford, and C. D. Sherrill,
    J. Chem. Theory Comput. 13(7) pp 3185--3197 (2017).
    (doi: 10.1021/acs.jctc.7b00174)


                         Additional Contributions by
    P. Kraus, H. Kruse, M. H. Lechner, M. C. Schieber, R. A. Shaw,
    A. Alenaizan, R. Galvelis, Z. L. Glick, S. Lehtola, and J. P. Misiewicz

    -----------------------------------------------------------------------


    Psi4 started on: Monday, 08 July 2019 02:47PM

    Process ID: 7027
    Host:       adabbott
    PSIDATADIR: /home/adabbott/anaconda3/envs/peslearn/share/psi4
    Memory:     500.0 MiB
    Threads:    1
    
  ==> Input File <==

--------------------------------------------------------------------------
# density fitted hartree fock 
molecule h2o {
0 1
H 0.0000000000 0.0000000000 1.0000000000
H 0.0000000000 0.8286887254 -0.1891427939
O 0.0000000000 0.0000000000 0.0000000000
}

set basis 6-31g
energy('hf')

--------------------------------------------------------------------------

*** tstart() called on adabbott
*** at Mon Jul  8 14:47:15 2019

   => Loading Basis Set <=

    Name: 6-31G
    Role: ORBITAL
    Keyword: BASIS
    atoms 1-2 entry H          line    26 file /home/adabbott/anaconda3/envs/peslearn/share/psi4/basis/6-31g.gbs 
    atoms 3   entry O          line   117 file /home/adabbott/anaconda3/envs/peslearn/share/psi4/basis/6-31g.gbs 


         ---------------------------------------------------------
                                   SCF
               by Justin Turney, Rob Parrish, Andy Simmonett
                          and Daniel G. A. Smith
                              RHF Reference
                        1 Threads,    500 MiB Core
         ---------------------------------------------------------

  ==> Geometry <==

    Molecular point group: cs
    Full point group: Cs

    Geometry (in Angstrom), charge = 0, multiplicity = 1:

       Center              X                  Y                   Z               Mass       
    ------------   -----------------  -----------------  -----------------  -----------------
         H            0.046371296849    -0.954626509262     0.000000000000     1.007825032230
         H           -0.782317428551     0.234516284638     0.000000000000     1.007825032230
         O            0.046371296849     0.045373490738     0.000000000000    15.994914619570

  Running in cs symmetry.

  Rotational constants: A =     29.76873  B =     15.41079  C =     10.15415 [cm^-1]
  Rotational constants: A = 892444.16806  B = 462003.85946  C = 304413.78452 [MHz]
  Nuclear repulsion =    9.579007764063885

  Charge       = 0
  Multiplicity = 1
  Electrons    = 10
  Nalpha       = 5
  Nbeta        = 5

  ==> Algorithm <==

  SCF Algorithm Type is DF.
  DIIS enabled.
  MOM disabled.
  Fractional occupation disabled.
  Guess Type is SAD.
  Energy threshold   = 1.00e-06
  Density threshold  = 1.00e-06
  Integral threshold = 0.00e+00

  ==> Primary Basis <==

  Basis Set: 6-31G
    Blend: 6-31G
    Number of shells: 9
    Number of basis function: 13
    Number of Cartesian functions: 13
    Spherical Harmonics?: false
    Max angular momentum: 1

   => Loading Basis Set <=

    Name: (6-31G AUX)
    Role: JKFIT
    Keyword: DF_BASIS_SCF
    atoms 1-2 entry H          line    51 file /home/adabbott/anaconda3/envs/peslearn/share/psi4/basis/cc-pvdz-jkfit.gbs 
    atoms 3   entry O          line   221 file /home/adabbott/anaconda3/envs/peslearn/share/psi4/basis/cc-pvdz-jkfit.gbs 

  ==> Pre-Iterations <==

   -------------------------------------------------------
    Irrep   Nso     Nmo     Nalpha   Nbeta   Ndocc  Nsocc
   -------------------------------------------------------
     A'        11      11       0       0       0       0
     A"         2       2       0       0       0       0
   -------------------------------------------------------
    Total      13      13       5       5       5       0
   -------------------------------------------------------

  ==> Integral Setup <==

  DFHelper Memory: AOs need 0.000 GiB; user supplied 0.366 GiB. Using in-core AOs.

  ==> MemDFJK: Density-Fitted J/K Matrices <==

    J tasked:                   Yes
    K tasked:                   Yes
    wK tasked:                   No
    OpenMP threads:               1
    Memory [MiB]:               375
    Algorithm:                 Core
    Schwarz Cutoff:           1E-12
    Mask sparsity (%):       0.0000
    Fitting Condition:        1E-10

   => Auxiliary Basis Set <=

  Basis Set: (6-31G AUX)
    Blend: CC-PVDZ-JKFIT
    Number of shells: 42
    Number of basis function: 131
    Number of Cartesian functions: 131
    Spherical Harmonics?: false
    Max angular momentum: 3

  Minimum eigenvalue in the overlap matrix is 5.9889821240E-02.
  Using Symmetric Orthogonalization.

  SCF Guess: Superposition of Atomic Densities via on-the-fly atomic UHF.

  ==> Iterations <==

                           Total Energy        Delta E     RMS |[F,P]|

   @DF-RHF iter SAD:   -75.56620088193772   -7.55662e+01   0.00000e+00 
   @DF-RHF iter   1:   -75.89080485787258   -3.24604e-01   3.71080e-02 DIIS
   @DF-RHF iter   2:   -75.94788773553366   -5.70829e-02   2.08109e-02 DIIS
   @DF-RHF iter   3:   -75.96642190757807   -1.85342e-02   1.73403e-03 DIIS
   @DF-RHF iter   4:   -75.96674348427253   -3.21577e-04   3.14774e-04 DIIS
   @DF-RHF iter   5:   -75.96675554681131   -1.20625e-05   4.82047e-05 DIIS
   @DF-RHF iter   6:   -75.96675593071778   -3.83906e-07   8.20732e-06 DIIS
   @DF-RHF iter   7:   -75.96675594172264   -1.10049e-08   1.55545e-06 DIIS
   @DF-RHF iter   8:   -75.96675594213221   -4.09571e-10   2.99699e-07 DIIS
  Energy and wave function converged.


  ==> Post-Iterations <==

    Orbital Energies [Eh]
    ---------------------

    Doubly Occupied:                                                      

       1Ap   -20.554780     2Ap    -1.383088     3Ap    -0.726399  
       4Ap    -0.567322     1App   -0.504611  

    Virtual:                                                              

       5Ap     0.205746     6Ap     0.309208     7Ap     1.037918  
       2App    1.163641     8Ap     1.207479     9Ap     1.257916  
      10Ap     1.434690    11Ap     1.703206  

    Final Occupation by Irrep:
             Ap   App 
    DOCC [     4,    1 ]

  @DF-RHF Final Energy:   -75.96675594213221

   => Energetics <=

    Nuclear Repulsion Energy =              9.5790077640638849
    One-Electron Energy =                -123.6191204015379128
    Two-Electron Energy =                  38.0733566953418148
    Total Energy =                        -75.9667559421322096

Computation Completed


Properties will be evaluated at   0.000000,   0.000000,   0.000000 [a0]

Properties computed using the SCF density matrix

  Nuclear Dipole Moment: [e a0]
     X:    -0.6897      Y:    -0.6749      Z:     0.0000

  Electronic Dipole Moment: [e a0]
     X:    -0.1061      Y:     0.0057      Z:     0.0000

  Dipole Moment: [e a0]
     X:    -0.7958      Y:    -0.6691      Z:     0.0000     Total:     1.0397

  Dipole Moment: [D]
     X:    -2.0228      Y:    -1.7007      Z:     0.0000     Total:     2.6427


*** tstop() called on adabbott at Mon Jul  8 14:47:15 2019
Module time:
	user time   =       0.34 seconds =       0.01 minutes
	system time =       0.01 seconds =       0.00 minutes
	total time  =          0 seconds =       0.00 minutes
Total time:
	user time   =       0.34 seconds =       0.01 minutes
	system time =       0.01 seconds =       0.00 minutes
	total time  =          0 seconds =       0.00 minutes

    Psi4 stopped on: Monday, 08 July 2019 02:47PM
    Psi4 wall time for execution: 0:00:00.35

*** Psi4 exiting successfully. Buy a developer a beer!
